   2   2   0   0
  0.1080000E+03  0.6000000E-09  0.6000000E-09  0.6000000E-09  0.5000000E-15
  1.000000000000000E-004
  CAR 
 unknown system                          
      5.14861897    -32.40439544  301     -6.72752184      1.00000000
    -32.404  0.0000E+00  0.0000E+00  0.0000E+00  0.0000E+00
    -32.279  0.0000E+00  0.0000E+00  0.0000E+00  0.0000E+00
    -32.154  0.0000E+00  0.0000E+00  0.0000E+00  0.0000E+00
    -32.029  0.0000E+00  0.0000E+00  0.0000E+00  0.0000E+00
    -31.904  0.0000E+00  0.0000E+00  0.0000E+00  0.0000E+00
    -31.779  0.0000E+00  0.0000E+00  0.0000E+00  0.0000E+00
    -31.653  0.0000E+00  0.0000E+00  0.0000E+00  0.0000E+00
    -31.528  0.0000E+00  0.0000E+00  0.0000E+00  0.0000E+00
    -31.403  0.0000E+00  0.0000E+00  0.0000E+00  0.0000E+00
    -31.278  0.0000E+00  0.0000E+00  0.0000E+00  0.0000E+00
    -31.153  0.0000E+00  0.0000E+00  0.0000E+00  0.0000E+00
    -31.027  0.0000E+00  0.0000E+00  0.0000E+00  0.0000E+00
    -30.902  0.2780E-09  0.0000E+00  0.3480E-10  0.0000E+00
    -30.777  0.9786E-03  0.0000E+00  0.1225E-03  0.0000E+00
    -30.652  0.7173E-01  0.0000E+00  0.9101E-02  0.0000E+00
    -30.527  0.7986E-02  0.0000E+00  0.1010E-01  0.0000E+00
    -30.402  0.5564E-07  0.0000E+00  0.1010E-01  0.0000E+00
    -30.276  0.0000E+00  0.0000E+00  0.1010E-01  0.0000E+00
    -30.151  0.0000E+00  0.0000E+00  0.1010E-01  0.0000E+00
    -30.026  0.0000E+00  0.0000E+00  0.1010E-01  0.0000E+00
    -29.901  0.0000E+00  0.0000E+00  0.1010E-01  0.0000E+00
    -29.776  0.0000E+00  0.0000E+00  0.1010E-01  0.0000E+00
    -29.651  0.0000E+00  0.3935E-13  0.1010E-01  0.4926E-14
    -29.525  0.0000E+00  0.1317E-04  0.1010E-01  0.1648E-05
    -29.400  0.0000E+00  0.3863E-01  0.1010E-01  0.4838E-02
    -29.275  0.0000E+00  0.4203E-01  0.1010E-01  0.1010E-01
    -29.150  0.0000E+00  0.1966E-04  0.1010E-01  0.1010E-01
    -29.025  0.0000E+00  0.8443E-13  0.1010E-01  0.1010E-01
    -28.899  0.0000E+00  0.0000E+00  0.1010E-01  0.1010E-01
    -28.774  0.0000E+00  0.0000E+00  0.1010E-01  0.1010E-01
    -28.649  0.0000E+00  0.0000E+00  0.1010E-01  0.1010E-01
    -28.524  0.0000E+00  0.0000E+00  0.1010E-01  0.1010E-01
    -28.399  0.0000E+00  0.0000E+00  0.1010E-01  0.1010E-01
    -28.274  0.0000E+00  0.0000E+00  0.1010E-01  0.1010E-01
    -28.148  0.0000E+00  0.0000E+00  0.1010E-01  0.1010E-01
    -28.023  0.0000E+00  0.0000E+00  0.1010E-01  0.1010E-01
    -27.898  0.0000E+00  0.0000E+00  0.1010E-01  0.1010E-01
    -27.773  0.0000E+00  0.0000E+00  0.1010E-01  0.1010E-01
    -27.648  0.0000E+00  0.0000E+00  0.1010E-01  0.1010E-01
    -27.523  0.0000E+00  0.0000E+00  0.1010E-01  0.1010E-01
    -27.397  0.0000E+00  0.0000E+00  0.1010E-01  0.1010E-01
    -27.272  0.0000E+00  0.0000E+00  0.1010E-01  0.1010E-01
    -27.147  0.0000E+00  0.0000E+00  0.1010E-01  0.1010E-01
    -27.022  0.0000E+00  0.0000E+00  0.1010E-01  0.1010E-01
    -26.897  0.0000E+00  0.0000E+00  0.1010E-01  0.1010E-01
    -26.771  0.0000E+00  0.0000E+00  0.1010E-01  0.1010E-01
    -26.646  0.0000E+00  0.0000E+00  0.1010E-01  0.1010E-01
    -26.521  0.0000E+00  0.0000E+00  0.1010E-01  0.1010E-01
    -26.396  0.0000E+00  0.0000E+00  0.1010E-01  0.1010E-01
    -26.271  0.0000E+00  0.0000E+00  0.1010E-01  0.1010E-01
    -26.146  0.0000E+00  0.0000E+00  0.1010E-01  0.1010E-01
    -26.020  0.0000E+00  0.0000E+00  0.1010E-01  0.1010E-01
    -25.895  0.0000E+00  0.0000E+00  0.1010E-01  0.1010E-01
    -25.770  0.0000E+00  0.0000E+00  0.1010E-01  0.1010E-01
    -25.645  0.0000E+00  0.0000E+00  0.1010E-01  0.1010E-01
    -25.520  0.0000E+00  0.0000E+00  0.1010E-01  0.1010E-01
    -25.394  0.0000E+00  0.0000E+00  0.1010E-01  0.1010E-01
    -25.269  0.0000E+00  0.0000E+00  0.1010E-01  0.1010E-01
    -25.144  0.0000E+00  0.0000E+00  0.1010E-01  0.1010E-01
    -25.019  0.0000E+00  0.0000E+00  0.1010E-01  0.1010E-01
    -24.894  0.0000E+00  0.0000E+00  0.1010E-01  0.1010E-01
    -24.769  0.0000E+00  0.0000E+00  0.1010E-01  0.1010E-01
    -24.643  0.0000E+00  0.0000E+00  0.1010E-01  0.1010E-01
    -24.518  0.0000E+00  0.0000E+00  0.1010E-01  0.1010E-01
    -24.393  0.0000E+00  0.0000E+00  0.1010E-01  0.1010E-01
    -24.268  0.0000E+00  0.0000E+00  0.1010E-01  0.1010E-01
    -24.143  0.0000E+00  0.0000E+00  0.1010E-01  0.1010E-01
    -24.018  0.0000E+00  0.0000E+00  0.1010E-01  0.1010E-01
    -23.892  0.0000E+00  0.0000E+00  0.1010E-01  0.1010E-01
    -23.767  0.0000E+00  0.0000E+00  0.1010E-01  0.1010E-01
    -23.642  0.0000E+00  0.0000E+00  0.1010E-01  0.1010E-01
    -23.517  0.0000E+00  0.0000E+00  0.1010E-01  0.1010E-01
    -23.392  0.0000E+00  0.0000E+00  0.1010E-01  0.1010E-01
    -23.266  0.0000E+00  0.0000E+00  0.1010E-01  0.1010E-01
    -23.141  0.0000E+00  0.0000E+00  0.1010E-01  0.1010E-01
    -23.016  0.0000E+00  0.0000E+00  0.1010E-01  0.1010E-01
    -22.891  0.0000E+00  0.0000E+00  0.1010E-01  0.1010E-01
    -22.766  0.0000E+00  0.0000E+00  0.1010E-01  0.1010E-01
    -22.641  0.0000E+00  0.0000E+00  0.1010E-01  0.1010E-01
    -22.515  0.0000E+00  0.0000E+00  0.1010E-01  0.1010E-01
    -22.390  0.0000E+00  0.0000E+00  0.1010E-01  0.1010E-01
    -22.265  0.0000E+00  0.0000E+00  0.1010E-01  0.1010E-01
    -22.140  0.0000E+00  0.0000E+00  0.1010E-01  0.1010E-01
    -22.015  0.0000E+00  0.0000E+00  0.1010E-01  0.1010E-01
    -21.890  0.0000E+00  0.0000E+00  0.1010E-01  0.1010E-01
    -21.764  0.0000E+00  0.0000E+00  0.1010E-01  0.1010E-01
    -21.639  0.0000E+00  0.0000E+00  0.1010E-01  0.1010E-01
    -21.514  0.0000E+00  0.0000E+00  0.1010E-01  0.1010E-01
    -21.389  0.0000E+00  0.0000E+00  0.1010E-01  0.1010E-01
    -21.264  0.0000E+00  0.0000E+00  0.1010E-01  0.1010E-01
    -21.138  0.0000E+00  0.0000E+00  0.1010E-01  0.1010E-01
    -21.013  0.0000E+00  0.0000E+00  0.1010E-01  0.1010E-01
    -20.888  0.5377E-09  0.0000E+00  0.1010E-01  0.1010E-01
    -20.763  0.1301E-02  0.0000E+00  0.1026E-01  0.1010E-01
    -20.638  0.7287E-01  0.0000E+00  0.1939E-01  0.1010E-01
    -20.513  0.6526E-02  0.0000E+00  0.2020E-01  0.1010E-01
    -20.387  0.3156E-07  0.0000E+00  0.2020E-01  0.1010E-01
    -20.262  0.0000E+00  0.0000E+00  0.2020E-01  0.1010E-01
    -20.137  0.0000E+00  0.0000E+00  0.2020E-01  0.1010E-01
    -20.012  0.0000E+00  0.0000E+00  0.2020E-01  0.1010E-01
    -19.887  0.0000E+00  0.0000E+00  0.2020E-01  0.1010E-01
    -19.762  0.0000E+00  0.0000E+00  0.2020E-01  0.1010E-01
    -19.636  0.0000E+00  0.0000E+00  0.2020E-01  0.1010E-01
    -19.511  0.0000E+00  0.0000E+00  0.2020E-01  0.1010E-01
    -19.386  0.0000E+00  0.0000E+00  0.2020E-01  0.1010E-01
    -19.261  0.0000E+00  0.3136E-16  0.2020E-01  0.1010E-01
    -19.136  0.0000E+00  0.2457E-06  0.2020E-01  0.1010E-01
    -19.010  0.0000E+00  0.1314E-01  0.2020E-01  0.1175E-01
    -18.885  0.0000E+00  0.6713E-01  0.2020E-01  0.2015E-01
    -18.760  0.0000E+00  0.4250E-03  0.2020E-01  0.2020E-01
    -18.635  0.0000E+00  0.4324E-10  0.2020E-01  0.2020E-01
    -18.510  0.0000E+00  0.0000E+00  0.2020E-01  0.2020E-01
    -18.385  0.0000E+00  0.0000E+00  0.2020E-01  0.2020E-01
    -18.259  0.0000E+00  0.0000E+00  0.2020E-01  0.2020E-01
    -18.134  0.0000E+00  0.0000E+00  0.2020E-01  0.2020E-01
    -18.009  0.0000E+00  0.0000E+00  0.2020E-01  0.2020E-01
    -17.884  0.0000E+00  0.0000E+00  0.2020E-01  0.2020E-01
    -17.759  0.0000E+00  0.0000E+00  0.2020E-01  0.2020E-01
    -17.634  0.0000E+00  0.0000E+00  0.2020E-01  0.2020E-01
    -17.508  0.0000E+00  0.0000E+00  0.2020E-01  0.2020E-01
    -17.383  0.0000E+00  0.0000E+00  0.2020E-01  0.2020E-01
    -17.258  0.0000E+00  0.0000E+00  0.2020E-01  0.2020E-01
    -17.133  0.0000E+00  0.0000E+00  0.2020E-01  0.2020E-01
    -17.008  0.0000E+00  0.0000E+00  0.2020E-01  0.2020E-01
    -16.882  0.0000E+00  0.0000E+00  0.2020E-01  0.2020E-01
    -16.757  0.0000E+00  0.0000E+00  0.2020E-01  0.2020E-01
    -16.632  0.0000E+00  0.0000E+00  0.2020E-01  0.2020E-01
    -16.507  0.0000E+00  0.0000E+00  0.2020E-01  0.2020E-01
    -16.382  0.0000E+00  0.0000E+00  0.2020E-01  0.2020E-01
    -16.257  0.0000E+00  0.0000E+00  0.2020E-01  0.2020E-01
    -16.131  0.0000E+00  0.0000E+00  0.2020E-01  0.2020E-01
    -16.006  0.0000E+00  0.0000E+00  0.2020E-01  0.2020E-01
    -15.881  0.0000E+00  0.0000E+00  0.2020E-01  0.2020E-01
    -15.756  0.0000E+00  0.0000E+00  0.2020E-01  0.2020E-01
    -15.631  0.0000E+00  0.0000E+00  0.2020E-01  0.2020E-01
    -15.506  0.0000E+00  0.0000E+00  0.2020E-01  0.2020E-01
    -15.380  0.0000E+00  0.0000E+00  0.2020E-01  0.2020E-01
    -15.255  0.0000E+00  0.0000E+00  0.2020E-01  0.2020E-01
    -15.130  0.0000E+00  0.0000E+00  0.2020E-01  0.2020E-01
    -15.005  0.0000E+00  0.0000E+00  0.2020E-01  0.2020E-01
    -14.880  0.0000E+00  0.0000E+00  0.2020E-01  0.2020E-01
    -14.754  0.0000E+00  0.0000E+00  0.2020E-01  0.2020E-01
    -14.629  0.0000E+00  0.0000E+00  0.2020E-01  0.2020E-01
    -14.504  0.0000E+00  0.0000E+00  0.2020E-01  0.2020E-01
    -14.379  0.0000E+00  0.0000E+00  0.2020E-01  0.2020E-01
    -14.254  0.0000E+00  0.0000E+00  0.2020E-01  0.2020E-01
    -14.129  0.0000E+00  0.0000E+00  0.2020E-01  0.2020E-01
    -14.003  0.0000E+00  0.0000E+00  0.2020E-01  0.2020E-01
    -13.878  0.0000E+00  0.0000E+00  0.2020E-01  0.2020E-01
    -13.753  0.0000E+00  0.0000E+00  0.2020E-01  0.2020E-01
    -13.628  0.0000E+00  0.0000E+00  0.2020E-01  0.2020E-01
    -13.503  0.0000E+00  0.0000E+00  0.2020E-01  0.2020E-01
    -13.378  0.0000E+00  0.0000E+00  0.2020E-01  0.2020E-01
    -13.252  0.0000E+00  0.0000E+00  0.2020E-01  0.2020E-01
    -13.127  0.0000E+00  0.0000E+00  0.2020E-01  0.2020E-01
    -13.002  0.0000E+00  0.0000E+00  0.2020E-01  0.2020E-01
    -12.877  0.4139E-09  0.0000E+00  0.2020E-01  0.2020E-01
    -12.752  0.1163E-02  0.0000E+00  0.2035E-01  0.2020E-01
    -12.626  0.7245E-01  0.0000E+00  0.2942E-01  0.2020E-01
    -12.501  0.7082E-02  0.0000E+00  0.3030E-01  0.2020E-01
    -12.376  0.4003E-07  0.0000E+00  0.3030E-01  0.2020E-01
    -12.251  0.1709E-02  0.0000E+00  0.3052E-01  0.2020E-01
    -12.126  0.1422E+00  0.0000E+00  0.4832E-01  0.2020E-01
    -12.001  0.1747E-01  0.0000E+00  0.5051E-01  0.2020E-01
    -11.875  0.1441E-06  0.4606E-07  0.5051E-01  0.2020E-01
    -11.750  0.0000E+00  0.7472E-02  0.5051E-01  0.2114E-01
    -11.625  0.0000E+00  0.7214E-01  0.5051E-01  0.3017E-01
    -11.500  0.0000E+00  0.1078E-02  0.5051E-01  0.3030E-01
    -11.375  0.0000E+00  0.3473E-09  0.5051E-01  0.3030E-01
    -11.250  0.0000E+00  0.0000E+00  0.5051E-01  0.3030E-01
    -11.124  0.0000E+00  0.0000E+00  0.5051E-01  0.3030E-01
    -10.999  0.0000E+00  0.0000E+00  0.5051E-01  0.3030E-01
    -10.874  0.0000E+00  0.0000E+00  0.5051E-01  0.3030E-01
    -10.749  0.0000E+00  0.0000E+00  0.5051E-01  0.3030E-01
    -10.624  0.0000E+00  0.4737E-08  0.5051E-01  0.3030E-01
    -10.498  0.0000E+00  0.4826E-02  0.5051E-01  0.3091E-01
    -10.373  0.0000E+00  0.1487E+00  0.5051E-01  0.4952E-01
    -10.248  0.0000E+00  0.7847E-02  0.5051E-01  0.5051E-01
    -10.123  0.0000E+00  0.1618E-07  0.5051E-01  0.5051E-01
     -9.998  0.0000E+00  0.0000E+00  0.5051E-01  0.5051E-01
     -9.873  0.0000E+00  0.0000E+00  0.5051E-01  0.5051E-01
     -9.747  0.0000E+00  0.0000E+00  0.5051E-01  0.5051E-01
     -9.622  0.0000E+00  0.0000E+00  0.5051E-01  0.5051E-01
     -9.497  0.0000E+00  0.0000E+00  0.5051E-01  0.5051E-01
     -9.372  0.0000E+00  0.0000E+00  0.5051E-01  0.5051E-01
     -9.247  0.0000E+00  0.0000E+00  0.5051E-01  0.5051E-01
     -9.122  0.0000E+00  0.0000E+00  0.5051E-01  0.5051E-01
     -8.996  0.0000E+00  0.0000E+00  0.5051E-01  0.5051E-01
     -8.871  0.0000E+00  0.0000E+00  0.5051E-01  0.5051E-01
     -8.746  0.0000E+00  0.0000E+00  0.5051E-01  0.5051E-01
     -8.621  0.0000E+00  0.0000E+00  0.5051E-01  0.5051E-01
     -8.496  0.0000E+00  0.0000E+00  0.5051E-01  0.5051E-01
     -8.370  0.0000E+00  0.0000E+00  0.5051E-01  0.5051E-01
     -8.245  0.0000E+00  0.0000E+00  0.5051E-01  0.5051E-01
     -8.120  0.0000E+00  0.0000E+00  0.5051E-01  0.5051E-01
     -7.995  0.0000E+00  0.0000E+00  0.5051E-01  0.5051E-01
     -7.870  0.0000E+00  0.0000E+00  0.5051E-01  0.5051E-01
     -7.745  0.0000E+00  0.0000E+00  0.5051E-01  0.5051E-01
     -7.619  0.0000E+00  0.0000E+00  0.5051E-01  0.5051E-01
     -7.494  0.0000E+00  0.0000E+00  0.5051E-01  0.5051E-01
     -7.369  0.0000E+00  0.0000E+00  0.5051E-01  0.5051E-01
     -7.244  0.1008E-09  0.0000E+00  0.5051E-01  0.5051E-01
     -7.119  0.9118E-03  0.0000E+00  0.5062E-01  0.5051E-01
     -6.994  0.1352E+00  0.0000E+00  0.6754E-01  0.5051E-01
     -6.868  0.2532E-01  0.0000E+00  0.7071E-01  0.5051E-01
     -6.743  0.4375E-06  0.0000E+00  0.7071E-01  0.5051E-01
     -6.618  0.0000E+00  0.0000E+00  0.7071E-01  0.5051E-01
     -6.493  0.0000E+00  0.0000E+00  0.7071E-01  0.5051E-01
     -6.368  0.0000E+00  0.0000E+00  0.7071E-01  0.5051E-01
     -6.242  0.0000E+00  0.0000E+00  0.7071E-01  0.5051E-01
     -6.117  0.0000E+00  0.0000E+00  0.7071E-01  0.5051E-01
     -5.992  0.0000E+00  0.0000E+00  0.7071E-01  0.5051E-01
     -5.867  0.0000E+00  0.0000E+00  0.7071E-01  0.5051E-01
     -5.742  0.0000E+00  0.0000E+00  0.7071E-01  0.5051E-01
     -5.617  0.0000E+00  0.0000E+00  0.7071E-01  0.5051E-01
     -5.491  0.0000E+00  0.0000E+00  0.7071E-01  0.5051E-01
     -5.366  0.0000E+00  0.0000E+00  0.7071E-01  0.5051E-01
     -5.241  0.0000E+00  0.0000E+00  0.7071E-01  0.5051E-01
     -5.116  0.0000E+00  0.5302E-07  0.7071E-01  0.5051E-01
     -4.991  0.0000E+00  0.1225E-01  0.7071E-01  0.5204E-01
     -4.866  0.0000E+00  0.1463E+00  0.7071E-01  0.7035E-01
     -4.740  0.0000E+00  0.2831E-02  0.7071E-01  0.7071E-01
     -4.615  0.0000E+00  0.1310E-08  0.7071E-01  0.7071E-01
     -4.490  0.0000E+00  0.0000E+00  0.7071E-01  0.7071E-01
     -4.365  0.0000E+00  0.0000E+00  0.7071E-01  0.7071E-01
     -4.240  0.0000E+00  0.0000E+00  0.7071E-01  0.7071E-01
     -4.114  0.0000E+00  0.0000E+00  0.7071E-01  0.7071E-01
     -3.989  0.0000E+00  0.0000E+00  0.7071E-01  0.7071E-01
     -3.864  0.0000E+00  0.0000E+00  0.7071E-01  0.7071E-01
     -3.739  0.0000E+00  0.0000E+00  0.7071E-01  0.7071E-01
     -3.614  0.0000E+00  0.0000E+00  0.7071E-01  0.7071E-01
     -3.489  0.0000E+00  0.0000E+00  0.7071E-01  0.7071E-01
     -3.363  0.0000E+00  0.0000E+00  0.7071E-01  0.7071E-01
     -3.238  0.0000E+00  0.0000E+00  0.7071E-01  0.7071E-01
     -3.113  0.0000E+00  0.0000E+00  0.7071E-01  0.7071E-01
     -2.988  0.0000E+00  0.0000E+00  0.7071E-01  0.7071E-01
     -2.863  0.0000E+00  0.0000E+00  0.7071E-01  0.7071E-01
     -2.738  0.0000E+00  0.0000E+00  0.7071E-01  0.7071E-01
     -2.612  0.0000E+00  0.0000E+00  0.7071E-01  0.7071E-01
     -2.487  0.0000E+00  0.0000E+00  0.7071E-01  0.7071E-01
     -2.362  0.0000E+00  0.0000E+00  0.7071E-01  0.7071E-01
     -2.237  0.0000E+00  0.0000E+00  0.7071E-01  0.7071E-01
     -2.112  0.0000E+00  0.0000E+00  0.7071E-01  0.7071E-01
     -1.986  0.0000E+00  0.0000E+00  0.7071E-01  0.7071E-01
     -1.861  0.0000E+00  0.0000E+00  0.7071E-01  0.7071E-01
     -1.736  0.0000E+00  0.0000E+00  0.7071E-01  0.7071E-01
     -1.611  0.0000E+00  0.0000E+00  0.7071E-01  0.7071E-01
     -1.486  0.0000E+00  0.0000E+00  0.7071E-01  0.7071E-01
     -1.361  0.0000E+00  0.0000E+00  0.7071E-01  0.7071E-01
     -1.235  0.0000E+00  0.0000E+00  0.7071E-01  0.7071E-01
     -1.110  0.0000E+00  0.0000E+00  0.7071E-01  0.7071E-01
     -0.985  0.0000E+00  0.0000E+00  0.7071E-01  0.7071E-01
     -0.860  0.0000E+00  0.0000E+00  0.7071E-01  0.7071E-01
     -0.735  0.2093E-11  0.0000E+00  0.7071E-01  0.7071E-01
     -0.610  0.1003E-03  0.7081E-10  0.7072E-01  0.7071E-01
     -0.484  0.5614E-01  0.5324E-03  0.7775E-01  0.7077E-01
     -0.359  0.2445E-01  0.6853E-01  0.8081E-01  0.7935E-01
     -0.234  0.2013E-05  0.1163E-01  0.8081E-01  0.8081E-01
     -0.109  0.1227E-14  0.1684E-06  0.8081E-01  0.8081E-01
      0.016  0.0000E+00  0.0000E+00  0.8081E-01  0.8081E-01
      0.142  0.3509E-13  0.0000E+00  0.8081E-01  0.8081E-01
      0.267  0.1239E-04  0.0000E+00  0.8081E-01  0.8081E-01
      0.392  0.3813E-01  0.0000E+00  0.8558E-01  0.8081E-01
      0.517  0.4253E-01  0.0000E+00  0.9091E-01  0.8081E-01
      0.642  0.2085E-04  0.0000E+00  0.9091E-01  0.8081E-01
      0.767  0.9451E-13  0.0000E+00  0.9091E-01  0.8081E-01
      0.893  0.0000E+00  0.0000E+00  0.9091E-01  0.8081E-01
      1.018  0.0000E+00  0.0000E+00  0.9091E-01  0.8081E-01
      1.143  0.0000E+00  0.0000E+00  0.9091E-01  0.8081E-01
      1.268  0.0000E+00  0.7303E-10  0.9091E-01  0.8081E-01
      1.393  0.0000E+00  0.5399E-03  0.9091E-01  0.8088E-01
      1.518  0.0000E+00  0.6862E-01  0.9091E-01  0.8946E-01
      1.644  0.0000E+00  0.1154E-01  0.9091E-01  0.9091E-01
      1.769  0.0000E+00  0.1643E-06  0.9091E-01  0.9091E-01
      1.894  0.0000E+00  0.0000E+00  0.9091E-01  0.9091E-01
      2.019  0.0000E+00  0.0000E+00  0.9091E-01  0.9091E-01
      2.144  0.0000E+00  0.0000E+00  0.9091E-01  0.9091E-01
      2.270  0.0000E+00  0.0000E+00  0.9091E-01  0.9091E-01
      2.395  0.0000E+00  0.0000E+00  0.9091E-01  0.9091E-01
      2.520  0.0000E+00  0.0000E+00  0.9091E-01  0.9091E-01
      2.645  0.0000E+00  0.0000E+00  0.9091E-01  0.9091E-01
      2.770  0.9817E-08  0.4182E-10  0.9091E-01  0.9091E-01
      2.895  0.4226E-02  0.4185E-03  0.9144E-01  0.9096E-01
      3.021  0.7425E-01  0.6703E-01  0.1007E+00  0.9935E-01
      3.146  0.2266E-02  0.1325E-01  0.1010E+00  0.1010E+00
      3.271  0.7908E-01  0.8496E-02  0.1109E+00  0.1021E+00
      3.396  0.8221E-01  0.7929E-01  0.1212E+00  0.1120E+00
      3.521  0.5309E-04  0.7262E-01  0.1212E+00  0.1211E+00
      3.646  0.4654E-12  0.9786E-03  0.1212E+00  0.1212E+00
      3.772  0.0000E+00  0.2780E-09  0.1212E+00  0.1212E+00
      3.897  0.0000E+00  0.0000E+00  0.1212E+00  0.1212E+00
      4.022  0.0000E+00  0.0000E+00  0.1212E+00  0.1212E+00
      4.147  0.0000E+00  0.0000E+00  0.1212E+00  0.1212E+00
      4.272  0.0000E+00  0.0000E+00  0.1212E+00  0.1212E+00
      4.398  0.0000E+00  0.0000E+00  0.1212E+00  0.1212E+00
      4.523  0.0000E+00  0.0000E+00  0.1212E+00  0.1212E+00
      4.648  0.0000E+00  0.0000E+00  0.1212E+00  0.1212E+00
      4.773  0.0000E+00  0.0000E+00  0.1212E+00  0.1212E+00
      4.898  0.0000E+00  0.0000E+00  0.1212E+00  0.1212E+00
      5.023  0.0000E+00  0.0000E+00  0.1212E+00  0.1212E+00
      5.149  0.0000E+00  0.0000E+00  0.1212E+00  0.1212E+00
