    2    2   99    2
  0.1080000E+03  0.6000000E-09  0.6000000E-09  0.6000000E-09  0.5000000E-15
  1.000000000000000E-004
  CAR 
 unknown system                          
     12      1     12
 
  0.0000000E+00  0.0000000E+00  0.0000000E+00  0.1000000E+01
    1      -30.697440    -29.398285   1.000000   1.000000
    2      -20.687255    -18.975742   1.000000   1.000000
    3      -12.674370    -11.703393   1.000000   1.000000
    4      -12.169458    -10.431925   1.000000   1.000000
    5      -12.169458    -10.431925   1.000000   1.000000
    6       -7.029134     -4.940026   1.000000   0.000000
    7       -7.029134     -4.940026   1.000000   0.000000
    8       -0.502563     -0.396706   0.000000   0.000000
    9        0.394331      1.480768   0.000000   0.000000
   10        2.952793      2.986059   0.000000   0.000000
   11        3.262426      3.315234   0.000000   0.000000
   12        3.281295      3.441664   0.000000   0.000000
