 vasp.5.4.1 24Jun15 (build Jan 06 2016 13:10:00) complex                        
  
 executed on           IFC91_ompi date 2016.03.01  14:34:17
 running on    8 total cores
 distrk:  each k-point on    8 cores,    1 groups
 distr:  one band on NCORES_PER_BAND=   4 cores,    2 groups


--------------------------------------------------------------------------------------------------------


 INCAR:
 POTCAR:    PAW O_s                               
 POTCAR:    PAW O_s                               
   VRHFIN =O: s2p4                                                              
   LEXCH  = 91                                                                  
   EATOM  =   433.0277 eV,   31.8266 Ry                                         
                                                                                
   TITEL  = PAW O_s                                                             
   LULTRA =        F    use ultrasoft PP ?                                      
   IUNSCR =        0    unscreen: 0-lin 1-nonlin 2-no                           
   RPACOR =     .000    partial core radius                                     
   POMASS =   16.000; ZVAL   =    6.000    mass and valenz                      
   RCORE  =    1.900    outmost cutoff radius                                   
   RWIGS  =    1.700; RWIGS  =     .900    wigner-seitz radius (au A)           
   ENMAX  =  250.000; ENMIN  =  202.667 eV                                      
   RCLOC  =    1.014    cutoff for local pot                                    
   LCOR   =        T    correct aug charges                                     
   LPAW   =        T    paw PP                                                  
   EAUG   =  412.352                                                            
   DEXC   =     .000                                                            
   RMAX   =    2.805    core radius for proj-oper                               
   RDEP   =    2.002    core radius for depl-charge                             
   QCUT   =   -4.457; QGAM   =    8.913    optimization parameters              
                                                                                
   Description                                                                  
     l     E      TYP  RCUT    TYP  RCUT                                        
     0   .000     23  1.500                                                     
     0   .000     23  1.500                                                     
     1   .000     23  1.900                                                     
     1   .000     23  1.900                                                     
     2   .000      7   .000                                                     
  local pseudopotential read in
  atomic valenz-charges read in
  non local Contribution for L=           0  read in
    real space projection operators read in
  non local Contribution for L=           0  read in
    real space projection operators read in
  non local Contribution for L=           1  read in
    real space projection operators read in
  non local Contribution for L=           1  read in
    real space projection operators read in
    PAW grid and wavefunctions read in
 
   number of l-projection  operators is LMAX  =           4
   number of lm-projection operators is LMMAX =           8
 

 ----------------------------------------------------------------------------- 
|                                                                             |
|  ADVICE TO THIS USER RUNNING 'VASP/VAMP'   (HEAR YOUR MASTER'S VOICE ...):  |
|                                                                             |
|      You have a (more or less) 'small supercell' and for smaller cells      |
|      it is recommended  to use the reciprocal-space projection scheme!      |
|      The real space optimization is not  efficient for small cells and it   |
|      is also less accurate ...                                              |
|      Therefore set LREAL=.FALSE. in the  INCAR file                         |
|                                                                             |
 ----------------------------------------------------------------------------- 

 Optimization of the real space projectors (new method)

 maximal supplied QI-value         = 19.84
 optimisation between [QCUT,QGAM] = [  8.73, 17.66] = [ 21.34, 87.33] Ry 
 Optimized for a Real-space Cutoff    1.46 Angstroem

   l    n(q)    QCUT    max X(q) W(low)/X(q) W(high)/X(q)  e(spline) 
   0      8     8.731     3.485    0.23E-04    0.53E-05    0.51E-07
   0      8     8.731    30.133    0.28E-03    0.36E-03    0.17E-06
   1      7     8.731     3.755    0.11E-03    0.11E-03    0.69E-07
   1      7     8.731    24.805    0.50E-03    0.59E-03    0.12E-06
  PAW O_s                               :
 energy of atom  1       EATOM= -433.0277
 kinetic energy error for atom=    0.0347 (will be added to EATOM!!)
 
 
 POSCAR: O                                       
  positions in direct lattice
  No initial velocities read in
 exchange correlation table for  LEXCH =        7
   RHO(1)=    0.500       N(1)  =     2000
   RHO(2)=  100.500       N(2)  =     4000

 VTST: version 3.1, (03/28/14)

 CHAIN: initializing optimizer
 
 OPT: Using VASP Conjugate-Gradient optimizer
 CHAIN: Read ICHAIN            0
 
 POSCAR: O                                       
  positions in direct lattice
  No initial velocities read in
 


--------------------------------------------------------------------------------------------------------


 ion  position               nearest neighbor table
   1  0.350  0.500  0.500-   2 1.80
   2  0.650  0.500  0.500-   1 1.80
 
  LATTYP: Found a simple cubic cell.
 ALAT       =     6.0000000000
  
  Lattice vectors:
  
 A1 = (   6.0000000000,   0.0000000000,   0.0000000000)
 A2 = (   0.0000000000,   6.0000000000,   0.0000000000)
 A3 = (   0.0000000000,   0.0000000000,   6.0000000000)


Analysis of symmetry for initial positions (statically):
=====================================================================
 Subroutine PRICEL returns:
 Original cell was already a primitive cell.
 

 Routine SETGRP: Setting up the symmetry group for a 
 simple cubic supercell.


 Subroutine GETGRP returns: Found 16 space group operations
 (whereof 16 operations were pure point group operations)
 out of a pool of 48 trial point group operations.


The static configuration has the point symmetry D_4h.


Analysis of symmetry for dynamics (positions and initial velocities):
=====================================================================
 Subroutine PRICEL returns:
 Original cell was already a primitive cell.
 

 Routine SETGRP: Setting up the symmetry group for a 
 simple cubic supercell.


 Subroutine GETGRP returns: Found 16 space group operations
 (whereof 16 operations were pure point group operations)
 out of a pool of 48 trial point group operations.


The dynamic configuration has the point symmetry D_4h.


Analysis of constrained symmetry for selective dynamics:
=====================================================================
 Subroutine PRICEL returns:
 Original cell was already a primitive cell.
 

 Routine SETGRP: Setting up the symmetry group for a 
 simple cubic supercell.


 Subroutine GETGRP returns: Found 16 space group operations
 (whereof 16 operations were pure point group operations)
 out of a pool of 48 trial point group operations.


The constrained configuration has the point symmetry D_4h.


Analysis of structural, dynamic, and magnetic symmetry:
=====================================================================
 Subroutine PRICEL returns:
 Original cell was already a primitive cell.
 

 Routine SETGRP: Setting up the symmetry group for a 
 simple cubic supercell.


 Subroutine GETGRP returns: Found 16 space group operations
 (whereof 16 operations were pure point group operations)
 out of a pool of 48 trial point group operations.


The magnetic configuration has the point symmetry D_4h.


 Subroutine INISYM returns: Found 16 space group operations
 (whereof 16 operations are pure point group operations),
 and found     1 'primitive' translations

 
 
 KPOINTS: Automatic Mesh                          

Automatic generation of k-mesh.
Space group operators:
 irot       det(A)        alpha          n_x          n_y          n_z        tau_x        tau_y        tau_z
    1     1.000000     0.000000     1.000000     0.000000     0.000000     0.000000     0.000000     0.000000
    2    -1.000000     0.000000     1.000000     0.000000     0.000000     0.000000     0.000000     0.000000
    3     1.000000   180.000000     0.000000     0.707107     0.707107     0.000000     0.000000     0.000000
    4    -1.000000   180.000000     0.000000     0.707107     0.707107     0.000000     0.000000     0.000000
    5     1.000000   180.000000     0.000000     0.000000     1.000000     0.000000     0.000000     0.000000
    6    -1.000000   180.000000     0.000000     0.000000     1.000000     0.000000     0.000000     0.000000
    7     1.000000    90.000000    -1.000000     0.000000     0.000000     0.000000     0.000000     0.000000
    8    -1.000000    90.000000    -1.000000     0.000000     0.000000     0.000000     0.000000     0.000000
    9     1.000000   180.000000     1.000000     0.000000     0.000000     0.000000     0.000000     0.000000
   10    -1.000000   180.000000     1.000000     0.000000     0.000000     0.000000     0.000000     0.000000
   11     1.000000    90.000000     1.000000     0.000000     0.000000     0.000000     0.000000     0.000000
   12    -1.000000    90.000000     1.000000     0.000000     0.000000     0.000000     0.000000     0.000000
   13     1.000000   180.000000     0.000000     1.000000     0.000000     0.000000     0.000000     0.000000
   14    -1.000000   180.000000     0.000000     1.000000     0.000000     0.000000     0.000000     0.000000
   15     1.000000   180.000000     0.000000    -0.707107     0.707107     0.000000     0.000000     0.000000
   16    -1.000000   180.000000     0.000000    -0.707107     0.707107     0.000000     0.000000     0.000000
 
 Subroutine IBZKPT returns following result:
 ===========================================
 
 Found      1 irreducible k-points:
 
 Following reciprocal coordinates:
            Coordinates               Weight
  0.000000  0.000000  0.000000      1.000000
 
 Following cartesian coordinates:
            Coordinates               Weight
  0.000000  0.000000  0.000000      1.000000
 


--------------------------------------------------------------------------------------------------------




 Dimension of arrays:
   k-points           NKPTS =      1   k-points in BZ     NKDIM =      1   number of bands    NBANDS=     12
   number of dos      NEDOS =    301   number of ions     NIONS =      2
   non local maximal  LDIM  =      4   non local SUM 2l+1 LMDIM =      8
   total plane-waves  NPLWV =  21952
   max r-space proj   IRMAX =   1371   max aug-charges    IRDMAX=   2545
   dimension x,y,z NGX =    28 NGY =   28 NGZ =   28
   dimension x,y,z NGXF=    56 NGYF=   56 NGZF=   56
   support grid    NGXF=    56 NGYF=   56 NGZF=   56
   ions per type =               2
 NGX,Y,Z   is equivalent  to a cutoff of   7.76,  7.76,  7.76 a.u.
 NGXF,Y,Z  is equivalent  to a cutoff of  15.52, 15.52, 15.52 a.u.


 I would recommend the setting:
   dimension x,y,z NGX =    25 NGY =   25 NGZ =   25
 SYSTEM =  unknown system                          
 POSCAR =  O                                       

 Startparameter for this run:
   NWRITE =      2    write-flag & timer
   PREC   = normal    normal or accurate (medium, high low for compatibility)
   ISTART =      0    job   : 0-new  1-cont  2-samecut
   ICHARG =      1    charge: 1-file 2-atom 10-const
   ISPIN  =      2    spin polarized calculation?
   LNONCOLLINEAR =      F non collinear calculations
   LSORBIT =      F    spin-orbit coupling
   INIWAV =      1    electr: 0-lowe 1-rand  2-diag
   LASPH  =      F    aspherical Exc in radial PAW
   METAGGA=      F    non-selfconsistent MetaGGA calc.

 Electronic Relaxation 1
   ENCUT  =  300.0 eV  22.05 Ry    4.70 a.u.   8.47  8.47  8.47*2*pi/ulx,y,z
   ENINI  =  300.0     initial cutoff
   ENAUG  =  412.4 eV  augmentation charge cutoff
   NELM   =    100;   NELMIN=  2; NELMDL= -5     # of ELM steps 
   EDIFF  = 0.1E-03   stopping-criterion for ELM
   LREAL  =      T    real-space projection
   NLSPLINE    = F    spline interpolate recip. space projectors
   LCOMPAT=      F    compatible to vasp.4.4
   GGA_COMPAT  = T    GGA compatible to vasp.4.4-vasp.4.6
   LMAXPAW     = -100 max onsite density
   LMAXMIX     =    4 max onsite mixed and CHGCAR
   VOSKOWN=      0    Vosko Wilk Nusair interpolation
   ROPT   =   -0.00050
 Ionic relaxation
   EDIFFG = -.1E-01   stopping-criterion for IOM
   NSW    =     99    number of steps for IOM
   NBLOCK =      1;   KBLOCK =     99    inner block; outer block 
   IBRION =      2    ionic relax: 0-MD 1-quasi-New 2-CG
   NFREE  =      1    steps in history (QN), initial steepest desc. (CG)
   ISIF   =      0    stress and relaxation
   IWAVPR =     11    prediction:  0-non 1-charg 2-wave 3-comb
   ISYM   =      2    0-nonsym 1-usesym 2-fastsym
   LCORR  =      T    Harris-Foulkes like correction to forces

   POTIM  = 0.5000    time-step for ionic-motion
   TEIN   =    0.0    initial temperature
   TEBEG  =    0.0;   TEEND  =   0.0 temperature during run
   SMASS  =  -3.00    Nose mass-parameter (am)
   estimated Nose-frequenzy (Omega)   =  0.10E-29 period in steps =****** mass=  -0.823E-27a.u.
   SCALEE = 1.0000    scale energy and forces
   NPACO  =    256;   APACO  = 16.0  distance and # of slots for P.C.
   PSTRESS=    0.0 pullay stress

  Mass of Ions in am
   POMASS =  16.00
  Ionic Valenz
   ZVAL   =   6.00
  Atomic Wigner-Seitz radii
   RWIGS  =  -1.00
  virtual crystal weights 
   VCA    =   1.00
   NELECT =      12.0000    total number of electrons
   NUPDOWN=      -1.0000    fix difference up-down

 DOS related values:
   EMIN   =  10.00;   EMAX   =-10.00  energy-range for DOS
   EFERMI =   0.00
   ISMEAR =     0;   SIGMA  =   0.05  broadening in eV -4-tet -1-fermi 0-gaus

 Electronic relaxation 2 (details)
   IALGO  =     68    algorithm
   LDIAG  =      T    sub-space diagonalisation (order eigenvalues)
   LSUBROT=      F    optimize rotation matrix (better conditioning)
   TURBO    =      0    0=normal 1=particle mesh
   IRESTART =      0    0=no restart 2=restart with 2 vectors
   NREBOOT  =      0    no. of reboots
   NMIN     =      0    reboot dimension
   EREF     =   0.00    reference energy to select bands
   IMIX   =      4    mixing-type and parameters
     AMIX     =   0.40;   BMIX     =  1.00
     AMIX_MAG =   1.60;   BMIX_MAG =  1.00
     AMIN     =   0.10
     WC   =   100.;   INIMIX=   1;  MIXPRE=   1;  MAXMIX= -45

 Intra band minimization:
   WEIMIN = 0.0010     energy-eigenvalue tresh-hold
   EBREAK =  0.21E-05  absolut break condition
   DEPER  =   0.30     relativ break condition  

   TIME   =   0.40     timestep for ELM

  volume/ion in A,a.u.               =     108.00       728.82
  Fermi-wavevector in a.u.,A,eV,Ry     =   0.624670  1.180455  5.309165  0.390213
  Thomas-Fermi vector in A             =   1.685308
 
 Write flags
   LWAVE  =      F    write WAVECAR
   LCHARG =      T    write CHGCAR
   LVTOT  =      F    write LOCPOT, total local potential
   LVHAR  =      F    write LOCPOT, Hartree potential only
   LELF   =      F    write electronic localiz. function (ELF)
   LORBIT =      0    0 simple, 1 ext, 2 COOP (PROOUT)


 Dipole corrections
   LMONO  =      F    monopole corrections only (constant potential shift)
   LDIPOL =      F    correct potential (dipole corrections)
   IDIPOL =      0    1-x, 2-y, 3-z, 4-all directions 
   EPSILON=  1.0000000 bulk dielectric constant

 LDA+U is selected, type is set to LDAUTYPE =  2
   angular momentum for each species LDAUL =     0
   U (eV)           for each species LDAUU =   0.0
   J (eV)           for each species LDAUJ =   0.0
 Exchange correlation treatment:
   GGA     =    --    GGA type
   LEXCH   =     7    internal setting for exchange type
   VOSKOWN=      0    Vosko Wilk Nusair interpolation
   LHFCALC =     F    Hartree Fock is set to
   LHFONE  =     F    Hartree Fock one center treatment
   AEXX    =    0.0000 exact exchange contribution

 Linear response parameters
   LEPSILON=     F    determine dielectric tensor
   LRPA    =     F    only Hartree local field effects (RPA)
   LNABLA  =     F    use nabla operator in PAW spheres
   LVEL    =     F    velocity operator in full k-point grid
   LINTERFAST=   F  fast interpolation
   KINTER  =     0    interpolate to denser k-point grid
   CSHIFT  =0.1000    complex shift for real part using Kramers Kronig
   OMEGAMAX=  -1.0    maximum frequency
   DEG_THRESHOLD= 0.2000000E-02 threshold for treating states as degnerate
   RTIME   =    0.100 relaxation time in fs

 Orbital magnetization related:
   ORBITALMAG=     F  switch on orbital magnetization
   LCHIMAG   =     F  perturbation theory with respect to B field
   DQ        =  0.001000  dq finite difference perturbation B field



--------------------------------------------------------------------------------------------------------


 conjugate gradient relaxation of ions
   using selective dynamics as specified on POSCAR
 charge density and potential will be updated during run
 spin polarized calculation
 RMM-DIIS sequential band-by-band and
  variant of blocked Davidson during initial phase
 perform sub-space diagonalisation
    before iterative eigenvector-optimisation
 modified Broyden-mixing scheme, WC =      100.0
 initial mixing is a Kerker type mixing with AMIX =  0.4000 and BMIX =      1.0000
 Hartree-type preconditioning will be used
 using additional bands            6
 real space projection scheme for non local part
 calculate Harris-corrections to forces 
   (improved forces if not selfconsistent)
 use gradient corrections 
 use of overlap-Matrix (Vanderbilt PP)
 Gauss-broadening in eV      SIGMA  =   0.05


--------------------------------------------------------------------------------------------------------


  energy-cutoff  :      300.00
  volume of cell :      216.00
      direct lattice vectors                 reciprocal lattice vectors
     6.000000000  0.000000000  0.000000000     0.166666667  0.000000000  0.000000000
     0.000000000  6.000000000  0.000000000     0.000000000  0.166666667  0.000000000
     0.000000000  0.000000000  6.000000000     0.000000000  0.000000000  0.166666667

  length of vectors
     6.000000000  6.000000000  6.000000000     0.166666667  0.166666667  0.166666667


 
 k-points in units of 2pi/SCALE and weight: Automatic Mesh                          
   0.00000000  0.00000000  0.00000000       1.000
 
 k-points in reciprocal lattice and weights: Automatic Mesh                          
   0.00000000  0.00000000  0.00000000       1.000
 
 position of ions in fractional coordinates (direct lattice) 
   0.35000000  0.50000000  0.50000000
   0.65000000  0.50000000  0.50000000
 
 position of ions in cartesian coordinates  (Angst):
   2.10000000  3.00000000  3.00000000
   3.90000000  3.00000000  3.00000000
 


--------------------------------------------------------------------------------------------------------


 k-point  1 :   0.0000 0.0000 0.0000  plane waves:    2517

 maximum and minimum number of plane-waves per node :       636      625

 maximum number of plane-waves:      2517
 maximum index in each direction: 
   IXMAX=    8   IYMAX=    8   IZMAX=    8
   IXMIN=   -8   IYMIN=   -8   IZMIN=   -8

 WARNING: aliasing errors must be expected set NGX to  34 to avoid them
 WARNING: aliasing errors must be expected set NGY to  34 to avoid them
 WARNING: aliasing errors must be expected set NGZ to  34 to avoid them
 aliasing errors are usually negligible using standard VASP settings
 and one can safely disregard these warnings

 real space projection operators:
  total allocation   :        161.12 KBytes
  max/ min on nodes  :         41.38         39.62


 parallel 3D FFT for wavefunctions:
    minimum data exchange during FFTs selected (reduces bandwidth)
 parallel 3D FFT for charge:
    minimum data exchange during FFTs selected (reduces bandwidth)


 total amount of memory used by VASP on root node    33222. kBytes
========================================================================

   base      :      30000. kBytes
   nonlr-proj:         94. kBytes
   fftplans  :        931. kBytes
   grid      :       2069. kBytes
   one-center:          6. kBytes
   wavefun   :        122. kBytes
 
     INWAV:  cpu time    0.0010: real time    0.0000
 Broyden mixing: mesh for mixing (old mesh)
   NGX = 17   NGY = 17   NGZ = 17
  (NGX  = 56   NGY  = 56   NGZ  = 56)
  gives a total of   4913 points

 initial charge density was supplied:
 charge density of overlapping atoms calculated
 number of electron      12.0000000 magnetization       2.0000000
 keeping initial charge density in first step


--------------------------------------------------------------------------------------------------------


 Maximum index for non-local projection operator          324
 Maximum index for augmentation-charges          322 (set IRDMAX)


--------------------------------------------------------------------------------------------------------


 First call to EWALD:  gamma=   0.295
 Maximum number of real-space cells 3x 3x 3
 Maximum number of reciprocal cells 3x 3x 3

 FEWALD executed in parallel
    FEWALD:  cpu time    0.0020: real time    0.0022


----------------------------------------- Iteration    1(   1)  ---------------------------------------


    POTLOK:  cpu time    0.2880: real time    0.2873
    SETDIJ:  cpu time    0.0100: real time    0.0115
atom =   1  type =  1  l = 0
 
 onsite density matrix
 
spin component  1
 
  1.0874
 
spin component  2
 
  0.7767
 
 occupancies and eigenvectors
 
  o =  0.7767  v =  0.0000  1.0000      0.0000  0.0000
  o =  1.0874  v =  1.0000  0.0000      0.0000  0.0000
atom =   2  type =  1  l = 0
 
 onsite density matrix
 
spin component  1
 
  1.0874
 
spin component  2
 
  0.7767
 
 occupancies and eigenvectors
 
  o =  0.7767  v =  0.0000  1.0000      0.0000  0.0000
  o =  1.0874  v =  1.0000  0.0000      0.0000  0.0000
     EDDAV:  cpu time    0.0610: real time    0.0599
       DOS:  cpu time    0.0000: real time    0.0001
    --------------------------------------------
      LOOP:  cpu time    0.3629: real time    0.3648

 eigenvalue-minimisations  :    64
 total energy-change (2. order) : 0.3193554E+02  (-0.3873899E+03)
 number of electron      12.0000000 magnetization       2.0000000
 augmentation part       12.0000000 magnetization       2.0000000

 Free energy of the ion-electron system (eV)
  ---------------------------------------------------
  alpha Z        PSCENC =         3.08284289
  Ewald energy   TEWEN  =      -183.76577248
  -Hartree energ DENC   =      -567.36551434
  -exchange      EXHF   =         0.00000000
  -V(xc)+E(xc)   XCENC  =        52.90821922
  PAW double counting   =       605.16383476     -612.21278690
  entropy T*S    EENTRO =         0.00000000
  eigenvalues    EBANDS =      -131.86132117
  atomic energy  EATOM  =       865.98604296
  Solvation  Ediel_sol  =         0.00000000
  ---------------------------------------------------
  free energy    TOTEN  =        31.93554494 eV

  energy without entropy =       31.93554494  energy(sigma->0) =       31.93554494


--------------------------------------------------------------------------------------------------------




----------------------------------------- Iteration    1(   2)  ---------------------------------------


     EDDAV:  cpu time    0.0540: real time    0.0547
       DOS:  cpu time    0.0000: real time    0.0001
    --------------------------------------------
      LOOP:  cpu time    0.0550: real time    0.0565

 eigenvalue-minimisations  :    64
 total energy-change (2. order) :-0.3661554E+02  (-0.3477248E+02)
 number of electron      12.0000000 magnetization       2.0000000
 augmentation part       12.0000000 magnetization       2.0000000

 Free energy of the ion-electron system (eV)
  ---------------------------------------------------
  alpha Z        PSCENC =         3.08284289
  Ewald energy   TEWEN  =      -183.76577248
  -Hartree energ DENC   =      -567.36551434
  -exchange      EXHF   =         0.00000000
  -V(xc)+E(xc)   XCENC  =        52.90821922
  PAW double counting   =       605.16383476     -612.21278690
  entropy T*S    EENTRO =         0.00000000
  eigenvalues    EBANDS =      -168.47686349
  atomic energy  EATOM  =       865.98604296
  Solvation  Ediel_sol  =         0.00000000
  ---------------------------------------------------
  free energy    TOTEN  =        -4.67999738 eV

  energy without entropy =       -4.67999738  energy(sigma->0) =       -4.67999738


--------------------------------------------------------------------------------------------------------




----------------------------------------- Iteration    1(   3)  ---------------------------------------


     EDDAV:  cpu time    0.0430: real time    0.0433
       DOS:  cpu time    0.0000: real time    0.0001
    --------------------------------------------
      LOOP:  cpu time    0.0440: real time    0.0450

 eigenvalue-minimisations  :    48
 total energy-change (2. order) :-0.1257826E+01  (-0.1253738E+01)
 number of electron      12.0000000 magnetization       2.0000000
 augmentation part       12.0000000 magnetization       2.0000000

 Free energy of the ion-electron system (eV)
  ---------------------------------------------------
  alpha Z        PSCENC =         3.08284289
  Ewald energy   TEWEN  =      -183.76577248
  -Hartree energ DENC   =      -567.36551434
  -exchange      EXHF   =         0.00000000
  -V(xc)+E(xc)   XCENC  =        52.90821922
  PAW double counting   =       605.16383476     -612.21278690
  entropy T*S    EENTRO =         0.00000000
  eigenvalues    EBANDS =      -169.73468972
  atomic energy  EATOM  =       865.98604296
  Solvation  Ediel_sol  =         0.00000000
  ---------------------------------------------------
  free energy    TOTEN  =        -5.93782361 eV

  energy without entropy =       -5.93782361  energy(sigma->0) =       -5.93782361


--------------------------------------------------------------------------------------------------------




----------------------------------------- Iteration    1(   4)  ---------------------------------------


     EDDAV:  cpu time    0.0520: real time    0.0530
       DOS:  cpu time    0.0010: real time    0.0001
    --------------------------------------------
      LOOP:  cpu time    0.0540: real time    0.0547

 eigenvalue-minimisations  :    64
 total energy-change (2. order) :-0.4811507E-02  (-0.4809903E-02)
 number of electron      12.0000000 magnetization       2.0000000
 augmentation part       12.0000000 magnetization       2.0000000

 Free energy of the ion-electron system (eV)
  ---------------------------------------------------
  alpha Z        PSCENC =         3.08284289
  Ewald energy   TEWEN  =      -183.76577248
  -Hartree energ DENC   =      -567.36551434
  -exchange      EXHF   =         0.00000000
  -V(xc)+E(xc)   XCENC  =        52.90821922
  PAW double counting   =       605.16383476     -612.21278690
  entropy T*S    EENTRO =         0.00000000
  eigenvalues    EBANDS =      -169.73950123
  atomic energy  EATOM  =       865.98604296
  Solvation  Ediel_sol  =         0.00000000
  ---------------------------------------------------
  free energy    TOTEN  =        -5.94263512 eV

  energy without entropy =       -5.94263512  energy(sigma->0) =       -5.94263512


--------------------------------------------------------------------------------------------------------




----------------------------------------- Iteration    1(   5)  ---------------------------------------


     EDDAV:  cpu time    0.0440: real time    0.0434
       DOS:  cpu time    0.0000: real time    0.0001
    CHARGE:  cpu time    0.0180: real time    0.0177
    MIXING:  cpu time    0.0010: real time    0.0016
    --------------------------------------------
      LOOP:  cpu time    0.0630: real time    0.0646

 eigenvalue-minimisations  :    48
 total energy-change (2. order) :-0.3328299E-04  (-0.3328309E-04)
 number of electron      12.0000091 magnetization       2.0000049
 augmentation part        2.3054211 magnetization       0.8165534

 Broyden mixing:
  rms(total) = 0.47349E+00    rms(broyden)= 0.46167E+00
  rms(prec ) = 0.53650E+00
  weight for this iteration     100.00

 Free energy of the ion-electron system (eV)
  ---------------------------------------------------
  alpha Z        PSCENC =         3.08284289
  Ewald energy   TEWEN  =      -183.76577248
  -Hartree energ DENC   =      -567.36551434
  -exchange      EXHF   =         0.00000000
  -V(xc)+E(xc)   XCENC  =        52.90821922
  PAW double counting   =       605.16383476     -612.21278690
  entropy T*S    EENTRO =         0.00000000
  eigenvalues    EBANDS =      -169.73953451
  atomic energy  EATOM  =       865.98604296
  Solvation  Ediel_sol  =         0.00000000
  ---------------------------------------------------
  free energy    TOTEN  =        -5.94266840 eV

  energy without entropy =       -5.94266840  energy(sigma->0) =       -5.94266840


--------------------------------------------------------------------------------------------------------




----------------------------------------- Iteration    1(   6)  ---------------------------------------


    POTLOK:  cpu time    0.2860: real time    0.2873
    SETDIJ:  cpu time    0.0120: real time    0.0116
atom =   1  type =  1  l = 0
 
 onsite density matrix
 
spin component  1
 
  0.8417
 
spin component  2
 
  1.0261
 
 occupancies and eigenvectors
 
  o =  0.8417  v =  1.0000  0.0000      0.0000  0.0000
  o =  1.0261  v =  0.0000  1.0000      0.0000  0.0000
atom =   2  type =  1  l = 0
 
 onsite density matrix
 
spin component  1
 
  0.8417
 
spin component  2
 
  1.0261
 
 occupancies and eigenvectors
 
  o =  0.8417  v =  1.0000  0.0000      0.0000  0.0000
  o =  1.0261  v =  0.0000  1.0000      0.0000  0.0000
    EDDIAG:  cpu time    0.0100: real time    0.0096
  RMM-DIIS:  cpu time    0.0310: real time    0.0308
    ORTHCH:  cpu time    0.0010: real time    0.0011
       DOS:  cpu time    0.0000: real time    0.0001
    CHARGE:  cpu time    0.0180: real time    0.0260
    MIXING:  cpu time    0.0020: real time    0.0017
    --------------------------------------------
      LOOP:  cpu time    0.3609: real time    0.3707

 eigenvalue-minimisations  :    48
 total energy-change (2. order) : 0.5143445E-01  (-0.4545726E-01)
 number of electron      12.0000091 magnetization       2.0000059
 augmentation part        2.3213487 magnetization       0.8460621

 Broyden mixing:
  rms(total) = 0.22808E+00    rms(broyden)= 0.22669E+00
  rms(prec ) = 0.26993E+00
  weight for this iteration     100.00

 eigenvalues of (default mixing * dielectric matrix)
  average eigenvalue GAMMA=   0.7485
  0.7485

 Free energy of the ion-electron system (eV)
  ---------------------------------------------------
  alpha Z        PSCENC =         3.08284289
  Ewald energy   TEWEN  =      -183.76577248
  -Hartree energ DENC   =      -565.30283836
  -exchange      EXHF   =         0.00000000
  -V(xc)+E(xc)   XCENC  =        53.00698993
  PAW double counting   =       607.61592473     -614.35635468
  entropy T*S    EENTRO =         0.00000000
  eigenvalues    EBANDS =      -172.15806893
  atomic energy  EATOM  =       865.98604296
  Solvation  Ediel_sol  =         0.00000000
  ---------------------------------------------------
  free energy    TOTEN  =        -5.89123395 eV

  energy without entropy =       -5.89123395  energy(sigma->0) =       -5.89123395


--------------------------------------------------------------------------------------------------------




----------------------------------------- Iteration    1(   7)  ---------------------------------------


    POTLOK:  cpu time    0.2860: real time    0.2870
    SETDIJ:  cpu time    0.0110: real time    0.0116
atom =   1  type =  1  l = 0
 
 onsite density matrix
 
spin component  1
 
  0.9818
 
spin component  2
 
  0.8883
 
 occupancies and eigenvectors
 
  o =  0.8883  v =  0.0000  1.0000      0.0000  0.0000
  o =  0.9818  v =  1.0000  0.0000      0.0000  0.0000
atom =   2  type =  1  l = 0
 
 onsite density matrix
 
spin component  1
 
  0.9818
 
spin component  2
 
  0.8883
 
 occupancies and eigenvectors
 
  o =  0.8883  v =  0.0000  1.0000      0.0000  0.0000
  o =  0.9818  v =  1.0000  0.0000      0.0000  0.0000
    EDDIAG:  cpu time    0.0090: real time    0.0096
  RMM-DIIS:  cpu time    0.0240: real time    0.0242
    ORTHCH:  cpu time    0.0010: real time    0.0011
       DOS:  cpu time    0.0000: real time    0.0001
    CHARGE:  cpu time    0.0170: real time    0.0175
    MIXING:  cpu time    0.0020: real time    0.0017
    --------------------------------------------
      LOOP:  cpu time    0.3529: real time    0.3553

 eigenvalue-minimisations  :    48
 total energy-change (2. order) :-0.8596852E-01  (-0.6037334E-02)
 number of electron      12.0000091 magnetization       2.0000064
 augmentation part        2.3229204 magnetization       0.8420167

 Broyden mixing:
  rms(total) = 0.12074E+00    rms(broyden)= 0.12070E+00
  rms(prec ) = 0.15016E+00
  weight for this iteration     100.00

 eigenvalues of (default mixing * dielectric matrix)
  average eigenvalue GAMMA=   1.2846
  0.6995  1.8696

 Free energy of the ion-electron system (eV)
  ---------------------------------------------------
  alpha Z        PSCENC =         3.08284289
  Ewald energy   TEWEN  =      -183.76577248
  -Hartree energ DENC   =      -564.94691730
  -exchange      EXHF   =         0.00000000
  -V(xc)+E(xc)   XCENC  =        52.88267730
  PAW double counting   =       610.13629636     -616.90114062
  entropy T*S    EENTRO =         0.00000000
  eigenvalues    EBANDS =      -172.45123156
  atomic energy  EATOM  =       865.98604296
  Solvation  Ediel_sol  =         0.00000000
  ---------------------------------------------------
  free energy    TOTEN  =        -5.97720246 eV

  energy without entropy =       -5.97720246  energy(sigma->0) =       -5.97720246


--------------------------------------------------------------------------------------------------------




----------------------------------------- Iteration    1(   8)  ---------------------------------------


    POTLOK:  cpu time    0.2850: real time    0.2860
    SETDIJ:  cpu time    0.0120: real time    0.0116
atom =   1  type =  1  l = 0
 
 onsite density matrix
 
spin component  1
 
  0.9093
 
spin component  2
 
  0.9643
 
 occupancies and eigenvectors
 
  o =  0.9093  v =  1.0000  0.0000      0.0000  0.0000
  o =  0.9643  v =  0.0000  1.0000      0.0000  0.0000
atom =   2  type =  1  l = 0
 
 onsite density matrix
 
spin component  1
 
  0.9093
 
spin component  2
 
  0.9643
 
 occupancies and eigenvectors
 
  o =  0.9093  v =  1.0000  0.0000      0.0000  0.0000
  o =  0.9643  v =  0.0000  1.0000      0.0000  0.0000
    EDDIAG:  cpu time    0.0100: real time    0.0112
  RMM-DIIS:  cpu time    0.0260: real time    0.0254
    ORTHCH:  cpu time    0.0010: real time    0.0011
       DOS:  cpu time    0.0000: real time    0.0001
    CHARGE:  cpu time    0.0160: real time    0.0174
    MIXING:  cpu time    0.0020: real time    0.0018
    --------------------------------------------
      LOOP:  cpu time    0.3529: real time    0.3571

 eigenvalue-minimisations  :    48
 total energy-change (2. order) :-0.4495238E-02  (-0.1645270E-02)
 number of electron      12.0000091 magnetization       2.0000062
 augmentation part        2.3241642 magnetization       0.8430660

 Broyden mixing:
  rms(total) = 0.22410E-01    rms(broyden)= 0.22368E-01
  rms(prec ) = 0.31698E-01
  weight for this iteration     100.00

 eigenvalues of (default mixing * dielectric matrix)
  average eigenvalue GAMMA=   1.2823
  2.3312  0.8335  0.6821

 Free energy of the ion-electron system (eV)
  ---------------------------------------------------
  alpha Z        PSCENC =         3.08284289
  Ewald energy   TEWEN  =      -183.76577248
  -Hartree energ DENC   =      -564.81016406
  -exchange      EXHF   =         0.00000000
  -V(xc)+E(xc)   XCENC  =        52.89064421
  PAW double counting   =       613.93548011     -620.60930775
  entropy T*S    EENTRO =         0.00000000
  eigenvalues    EBANDS =      -172.69146358
  atomic energy  EATOM  =       865.98604296
  Solvation  Ediel_sol  =         0.00000000
  ---------------------------------------------------
  free energy    TOTEN  =        -5.98169770 eV

  energy without entropy =       -5.98169770  energy(sigma->0) =       -5.98169770


--------------------------------------------------------------------------------------------------------




----------------------------------------- Iteration    1(   9)  ---------------------------------------


    POTLOK:  cpu time    0.2850: real time    0.2868
    SETDIJ:  cpu time    0.0120: real time    0.0116
atom =   1  type =  1  l = 0
 
 onsite density matrix
 
spin component  1
 
  0.9546
 
spin component  2
 
  0.9197
 
 occupancies and eigenvectors
 
  o =  0.9197  v =  0.0000  1.0000      0.0000  0.0000
  o =  0.9546  v =  1.0000  0.0000      0.0000  0.0000
atom =   2  type =  1  l = 0
 
 onsite density matrix
 
spin component  1
 
  0.9546
 
spin component  2
 
  0.9197
 
 occupancies and eigenvectors
 
  o =  0.9197  v =  0.0000  1.0000      0.0000  0.0000
  o =  0.9546  v =  1.0000  0.0000      0.0000  0.0000
    EDDIAG:  cpu time    0.0090: real time    0.0096
  RMM-DIIS:  cpu time    0.0240: real time    0.0241
    ORTHCH:  cpu time    0.0010: real time    0.0011
       DOS:  cpu time    0.0000: real time    0.0001
    CHARGE:  cpu time    0.0170: real time    0.0175
    MIXING:  cpu time    0.0020: real time    0.0019
    --------------------------------------------
      LOOP:  cpu time    0.3529: real time    0.3551

 eigenvalue-minimisations  :    48
 total energy-change (2. order) :-0.1248549E-02  (-0.2601056E-03)
 number of electron      12.0000091 magnetization       2.0000060
 augmentation part        2.3229198 magnetization       0.8424732

 Broyden mixing:
  rms(total) = 0.86246E-02    rms(broyden)= 0.86184E-02
  rms(prec ) = 0.14086E-01
  weight for this iteration     100.00

 eigenvalues of (default mixing * dielectric matrix)
  average eigenvalue GAMMA=   1.2307
  2.4051  0.6705  0.7199  1.1273

 Free energy of the ion-electron system (eV)
  ---------------------------------------------------
  alpha Z        PSCENC =         3.08284289
  Ewald energy   TEWEN  =      -183.76577248
  -Hartree energ DENC   =      -565.00287832
  -exchange      EXHF   =         0.00000000
  -V(xc)+E(xc)   XCENC  =        52.90412005
  PAW double counting   =       614.74238442     -621.42860216
  entropy T*S    EENTRO =         0.00000000
  eigenvalues    EBANDS =      -172.50108360
  atomic energy  EATOM  =       865.98604296
  Solvation  Ediel_sol  =         0.00000000
  ---------------------------------------------------
  free energy    TOTEN  =        -5.98294625 eV

  energy without entropy =       -5.98294625  energy(sigma->0) =       -5.98294625


--------------------------------------------------------------------------------------------------------




----------------------------------------- Iteration    1(  10)  ---------------------------------------


    POTLOK:  cpu time    0.2850: real time    0.2877
    SETDIJ:  cpu time    0.0120: real time    0.0116
atom =   1  type =  1  l = 0
 
 onsite density matrix
 
spin component  1
 
  0.9312
 
spin component  2
 
  0.9432
 
 occupancies and eigenvectors
 
  o =  0.9312  v =  1.0000  0.0000      0.0000  0.0000
  o =  0.9432  v =  0.0000  1.0000      0.0000  0.0000
atom =   2  type =  1  l = 0
 
 onsite density matrix
 
spin component  1
 
  0.9312
 
spin component  2
 
  0.9432
 
 occupancies and eigenvectors
 
  o =  0.9312  v =  1.0000  0.0000      0.0000  0.0000
  o =  0.9432  v =  0.0000  1.0000      0.0000  0.0000
    EDDIAG:  cpu time    0.0100: real time    0.0097
  RMM-DIIS:  cpu time    0.0220: real time    0.0227
    ORTHCH:  cpu time    0.0010: real time    0.0011
       DOS:  cpu time    0.0010: real time    0.0001
    CHARGE:  cpu time    0.0170: real time    0.0174
    MIXING:  cpu time    0.0020: real time    0.0020
    --------------------------------------------
      LOOP:  cpu time    0.3519: real time    0.3548

 eigenvalue-minimisations  :    44
 total energy-change (2. order) :-0.5903069E-03  (-0.5862338E-04)
 number of electron      12.0000091 magnetization       2.0000061
 augmentation part        2.3227185 magnetization       0.8423340

 Broyden mixing:
  rms(total) = 0.33000E-02    rms(broyden)= 0.32984E-02
  rms(prec ) = 0.67409E-02
  weight for this iteration     100.00

 eigenvalues of (default mixing * dielectric matrix)
  average eigenvalue GAMMA=   1.2020
  2.4422  1.4142  0.8466  0.6843  0.6226

 Free energy of the ion-electron system (eV)
  ---------------------------------------------------
  alpha Z        PSCENC =         3.08284289
  Ewald energy   TEWEN  =      -183.76577248
  -Hartree energ DENC   =      -565.10058155
  -exchange      EXHF   =         0.00000000
  -V(xc)+E(xc)   XCENC  =        52.90638108
  PAW double counting   =       614.93293433     -621.60728593
  entropy T*S    EENTRO =         0.00000000
  eigenvalues    EBANDS =      -172.41809786
  atomic energy  EATOM  =       865.98604296
  Solvation  Ediel_sol  =         0.00000000
  ---------------------------------------------------
  free energy    TOTEN  =        -5.98353656 eV

  energy without entropy =       -5.98353656  energy(sigma->0) =       -5.98353656


--------------------------------------------------------------------------------------------------------




----------------------------------------- Iteration    1(  11)  ---------------------------------------


    POTLOK:  cpu time    0.2860: real time    0.2867
    SETDIJ:  cpu time    0.0110: real time    0.0115
atom =   1  type =  1  l = 0
 
 onsite density matrix
 
spin component  1
 
  0.9398
 
spin component  2
 
  0.9345
 
 occupancies and eigenvectors
 
  o =  0.9345  v =  0.0000  1.0000      0.0000  0.0000
  o =  0.9398  v =  1.0000  0.0000      0.0000  0.0000
atom =   2  type =  1  l = 0
 
 onsite density matrix
 
spin component  1
 
  0.9398
 
spin component  2
 
  0.9345
 
 occupancies and eigenvectors
 
  o =  0.9345  v =  0.0000  1.0000      0.0000  0.0000
  o =  0.9398  v =  1.0000  0.0000      0.0000  0.0000
    EDDIAG:  cpu time    0.0090: real time    0.0094
  RMM-DIIS:  cpu time    0.0190: real time    0.0190
    ORTHCH:  cpu time    0.0010: real time    0.0011
       DOS:  cpu time    0.0000: real time    0.0001
    --------------------------------------------
      LOOP:  cpu time    0.3279: real time    0.3304

 eigenvalue-minimisations  :    34
 total energy-change (2. order) :-0.5018388E-04  (-0.1035571E-04)
 number of electron      12.0000091 magnetization       2.0000061
 augmentation part        2.3227185 magnetization       0.8423340

 Free energy of the ion-electron system (eV)
  ---------------------------------------------------
  alpha Z        PSCENC =         3.08284289
  Ewald energy   TEWEN  =      -183.76577248
  -Hartree energ DENC   =      -565.11157758
  -exchange      EXHF   =         0.00000000
  -V(xc)+E(xc)   XCENC  =        52.90625141
  PAW double counting   =       614.90724109     -621.58195695
  entropy T*S    EENTRO =         0.00000000
  eigenvalues    EBANDS =      -172.40665807
  atomic energy  EATOM  =       865.98604296
  Solvation  Ediel_sol  =         0.00000000
  ---------------------------------------------------
  free energy    TOTEN  =        -5.98358674 eV

  energy without entropy =       -5.98358674  energy(sigma->0) =       -5.98358674


--------------------------------------------------------------------------------------------------------




 average (electrostatic) potential at core
  the test charge radii are     0.8742
  (the norm of the test charge is              1.0000)
       1 -74.1237       2 -74.1237
 
 
 
 E-fermi :  -8.2265     XC(G=0):  -2.5359     alpha+bet : -0.6567


 spin component 1

 k-point     1 :       0.0000    0.0000    0.0000
  band No.  band energies     occupation 
      1     -25.8917      1.00000
      2     -23.2364      1.00000
      3     -11.5077      1.00000
      4     -10.2799      1.00000
      5     -10.2799      1.00000
      6      -8.7308      1.00000
      7      -8.7308      1.00000
      8      -6.3059      0.00000
      9      -0.7071      0.00000
     10       3.0891      0.00000
     11       3.0992      0.00000
     12       3.2096      0.00000

 spin component 2

 k-point     1 :       0.0000    0.0000    0.0000
  band No.  band energies     occupation 
      1     -24.4281      1.00000
      2     -21.5635      1.00000
      3     -10.7108      1.00000
      4      -8.5236      1.00000
      5      -8.5236      1.00000
      6      -6.7631      0.00000
      7      -6.7631      0.00000
      8      -5.3179      0.00000
      9      -0.6079      0.00000
     10       3.1070      0.00000
     11       3.1635      0.00000
     12       3.3978      0.00000


--------------------------------------------------------------------------------------------------------


 soft charge-density along one line, spin component           1
         0         1         2         3         4         5         6         7         8         9
 total charge-density along one line
 
 soft charge-density along one line, spin component           2
         0         1         2         3         4         5         6         7         8         9
 total charge-density along one line
 
 pseudopotential strength for first ion, spin component:           1
 12.367   0.000   0.000   0.000  -0.121   0.000   0.000  -0.019
  0.000   0.025   0.000   0.000   0.000   0.000   0.000   0.000
  0.000   0.000 -11.209   0.000   0.000  -0.513   0.000   0.000
  0.000   0.000   0.000 -11.209   0.000   0.000  -0.513   0.000
 -0.121   0.000   0.000   0.000 -11.211   0.000   0.000  -0.509
  0.000   0.000  -0.513   0.000   0.000   0.128   0.000   0.000
  0.000   0.000   0.000  -0.513   0.000   0.000   0.128   0.000
 -0.019   0.000   0.000   0.000  -0.509   0.000   0.000   0.128
 pseudopotential strength for first ion, spin component:           2
 11.976  -0.003   0.000   0.000  -0.112   0.000   0.000  -0.017
 -0.003   0.024   0.000   0.000  -0.001   0.000   0.000   0.000
  0.000   0.000 -10.291   0.000   0.000  -0.376   0.000   0.000
  0.000   0.000   0.000 -10.291   0.000   0.000  -0.376   0.000
 -0.112  -0.001   0.000   0.000 -10.795   0.000   0.000  -0.445
  0.000   0.000  -0.376   0.000   0.000   0.147   0.000   0.000
  0.000   0.000   0.000  -0.376   0.000   0.000   0.147   0.000
 -0.017   0.000   0.000   0.000  -0.445   0.000   0.000   0.138
 total augmentation occupancy for first ion, spin component:           1
  2.003  -0.006   0.000   0.000  -0.121   0.000   0.000   0.047
 -0.006   0.171   0.000   0.000   0.337   0.000   0.000  -0.225
  0.000   0.000   1.495   0.000   0.000  -0.005   0.000   0.000
  0.000   0.000   0.000   1.495   0.000   0.000  -0.005   0.000
 -0.121   0.337   0.000   0.000   1.084   0.000   0.000  -0.448
  0.000   0.000  -0.005   0.000   0.000   0.056   0.000   0.000
  0.000   0.000   0.000  -0.005   0.000   0.000   0.056   0.000
  0.047  -0.225   0.000   0.000  -0.448   0.000   0.000   0.304
 total augmentation occupancy for first ion, spin component:           2
  0.023  -0.086   0.000   0.000   0.005   0.000   0.000   0.004
 -0.086  -0.008   0.000   0.000  -0.004   0.000   0.000   0.018
  0.000   0.000   0.526   0.000   0.000   0.204   0.000   0.000
  0.000   0.000   0.000   0.526   0.000   0.000   0.204   0.000
  0.005  -0.004   0.000   0.000   0.000   0.000   0.000   0.045
  0.000   0.000   0.204   0.000   0.000   0.011   0.000   0.000
  0.000   0.000   0.000   0.204   0.000   0.000   0.011   0.000
  0.004   0.018   0.000   0.000   0.045   0.000   0.000  -0.040


------------------------ aborting loop because EDIFF is reached ----------------------------------------


    CHARGE:  cpu time    0.0170: real time    0.0171
    FORLOC:  cpu time    0.0010: real time    0.0011
    FORNL :  cpu time    0.0150: real time    0.0142
    FORHAR:  cpu time    0.0200: real time    0.0209
    MIXING:  cpu time    0.0020: real time    0.0024
    OFIELD:  cpu time    0.0000: real time    0.0001

 VOLUME and BASIS-vectors are now :
 -----------------------------------------------------------------------------
  energy-cutoff  :      300.00
  volume of cell :      216.00
      direct lattice vectors                 reciprocal lattice vectors
     6.000000000  0.000000000  0.000000000     0.166666667  0.000000000  0.000000000
     0.000000000  6.000000000  0.000000000     0.000000000  0.166666667  0.000000000
     0.000000000  0.000000000  6.000000000     0.000000000  0.000000000  0.166666667

  length of vectors
     6.000000000  6.000000000  6.000000000     0.166666667  0.166666667  0.166666667


 FORCES acting on ions
    electron-ion (+dipol)            ewald-force                    non-local-force                 convergence-correction
 -----------------------------------------------------------------------------------------------
   0.122E+03 0.223E-12 -.135E-05   -.137E+03 -.472E-16 0.362E-16   0.216E+02 -.662E-23 0.199E-22   -.317E-01 -.250E-13 -.421E-13
   -.122E+03 0.292E-12 0.135E-05   0.137E+03 0.835E-16 -.549E-16   -.216E+02 0.331E-22 0.000E+00   0.317E-01 -.372E-13 0.330E-14
 -----------------------------------------------------------------------------------------------
   0.426E-12 0.515E-12 0.263E-12   0.000E+00 0.363E-16 -.186E-16   0.000E+00 0.265E-22 0.199E-22   -.354E-13 -.622E-13 -.388E-13
 
 
 POSITION                                       TOTAL-FORCE (eV/Angst)
 -----------------------------------------------------------------------------------
      2.10000      3.00000      3.00000         7.080444      0.000000      0.000000
      3.90000      3.00000      3.00000        -7.080444      0.000000      0.000000
 -----------------------------------------------------------------------------------
    total drift:                                0.000000      0.000000      0.000000


--------------------------------------------------------------------------------------------------------



  FREE ENERGIE OF THE ION-ELECTRON SYSTEM (eV)
  ---------------------------------------------------
  free  energy   TOTEN  =        -5.98358674 eV

  energy  without entropy=       -5.98358674  energy(sigma->0) =       -5.98358674
 


--------------------------------------------------------------------------------------------------------


    POTLOK:  cpu time    0.2970: real time    0.2977


--------------------------------------------------------------------------------------------------------


 stress matrix after NEB project (eV)
      0.00000      0.00000      0.00000
      0.00000      0.00000      0.00000
      0.00000      0.00000      0.00000
  FORCES: max atom, RMS     7.080444    7.080444
  FORCE total and by dimension   10.013260    7.080444
  Stress total and by dimension    0.000000    0.000000


--------------------------------------------------------------------------------------------------------


    WAVPRE:  cpu time    0.0020: real time    0.0025
 FEWALD executed in parallel
    FEWALD:  cpu time    0.0000: real time    0.0001

 real space projection operators:
  total allocation   :        159.75 KBytes
  max/ min on nodes  :         40.69         39.00

    ORTHCH:  cpu time    0.0040: real time    0.0049
     LOOP+:  cpu time    3.4855: real time    3.5602


----------------------------------------- Iteration    2(   1)  ---------------------------------------


    POTLOK:  cpu time    0.2870: real time    0.2890
    SETDIJ:  cpu time    0.0120: real time    0.0115
atom =   1  type =  1  l = 0
 
 onsite density matrix
 
spin component  1
 
  0.9380
 
spin component  2
 
  0.9362
 
 occupancies and eigenvectors
 
  o =  0.9362  v =  0.0000  1.0000      0.0000  0.0000
  o =  0.9380  v =  1.0000  0.0000      0.0000  0.0000
atom =   2  type =  1  l = 0
 
 onsite density matrix
 
spin component  1
 
  0.9380
 
spin component  2
 
  0.9362
 
 occupancies and eigenvectors
 
  o =  0.9362  v =  0.0000  1.0000      0.0000  0.0000
  o =  0.9380  v =  1.0000  0.0000      0.0000  0.0000
     EDDAV:  cpu time    0.0470: real time    0.0470
       DOS:  cpu time    0.0000: real time    0.0001
    CHARGE:  cpu time    0.0170: real time    0.0173
    MIXING:  cpu time    0.0020: real time    0.0014
    --------------------------------------------
      LOOP:  cpu time    0.3669: real time    0.3696

 eigenvalue-minimisations  :    52
 total energy-change (2. order) : 0.1232810E+01  (-0.8179849E+02)
 number of electron      12.0000123 magnetization       2.0000058
 augmentation part        2.8438972 magnetization       0.8948262

 Broyden mixing:
  rms(total) = 0.10322E+01    rms(broyden)= 0.10191E+01
  rms(prec ) = 0.11542E+01
  weight for this iteration     100.00

 Free energy of the ion-electron system (eV)
  ---------------------------------------------------
  alpha Z        PSCENC =         3.08284289
  Ewald energy   TEWEN  =       -19.52380061
  -Hartree energ DENC   =      -697.04631705
  -exchange      EXHF   =         0.00000000
  -V(xc)+E(xc)   XCENC  =        55.24035062
  PAW double counting   =       614.83764030     -621.51032840
  entropy T*S    EENTRO =         0.00000000
  eigenvalues    EBANDS =      -205.81715767
  atomic energy  EATOM  =       865.98604296
  Solvation  Ediel_sol  =         0.00000000
  ---------------------------------------------------
  free energy    TOTEN  =        -4.75072697 eV

  energy without entropy =       -4.75072697  energy(sigma->0) =       -4.75072697


--------------------------------------------------------------------------------------------------------




----------------------------------------- Iteration    2(   2)  ---------------------------------------


    POTLOK:  cpu time    0.2830: real time    0.2836
    SETDIJ:  cpu time    0.0110: real time    0.0116
atom =   1  type =  1  l = 0
 
 onsite density matrix
 
spin component  1
 
  0.9600
 
spin component  2
 
  0.9645
 
 occupancies and eigenvectors
 
  o =  0.9600  v =  1.0000  0.0000      0.0000  0.0000
  o =  0.9645  v =  0.0000  1.0000      0.0000  0.0000
atom =   2  type =  1  l = 0
 
 onsite density matrix
 
spin component  1
 
  0.9600
 
spin component  2
 
  0.9645
 
 occupancies and eigenvectors
 
  o =  0.9600  v =  1.0000  0.0000      0.0000  0.0000
  o =  0.9645  v =  0.0000  1.0000      0.0000  0.0000
    EDDIAG:  cpu time    0.0100: real time    0.0095
  RMM-DIIS:  cpu time    0.0240: real time    0.0241
    ORTHCH:  cpu time    0.0010: real time    0.0011
       DOS:  cpu time    0.0000: real time    0.0001
    CHARGE:  cpu time    0.0180: real time    0.0175
    MIXING:  cpu time    0.0010: real time    0.0015
    --------------------------------------------
      LOOP:  cpu time    0.3489: real time    0.3516

 eigenvalue-minimisations  :    48
 total energy-change (2. order) :-0.1807153E+01  (-0.1949996E+01)
 number of electron      12.0000122 magnetization       2.0000059
 augmentation part        2.7911670 magnetization       0.8952060

 Broyden mixing:
  rms(total) = 0.47742E+00    rms(broyden)= 0.47481E+00
  rms(prec ) = 0.58697E+00
  weight for this iteration     100.00

 eigenvalues of (default mixing * dielectric matrix)
  average eigenvalue GAMMA=   0.7345
  0.7345

 Free energy of the ion-electron system (eV)
  ---------------------------------------------------
  alpha Z        PSCENC =         3.08284289
  Ewald energy   TEWEN  =       -19.52380061
  -Hartree energ DENC   =      -701.06624933
  -exchange      EXHF   =         0.00000000
  -V(xc)+E(xc)   XCENC  =        55.79555703
  PAW double counting   =       689.04588330     -696.85804220
  entropy T*S    EENTRO =         0.00000000
  eigenvalues    EBANDS =      -203.02011397
  atomic energy  EATOM  =       865.98604296
  Solvation  Ediel_sol  =         0.00000000
  ---------------------------------------------------
  free energy    TOTEN  =        -6.55787994 eV

  energy without entropy =       -6.55787994  energy(sigma->0) =       -6.55787994


--------------------------------------------------------------------------------------------------------




----------------------------------------- Iteration    2(   3)  ---------------------------------------


    POTLOK:  cpu time    0.2800: real time    0.2812
    SETDIJ:  cpu time    0.0110: real time    0.0115
atom =   1  type =  1  l = 0
 
 onsite density matrix
 
spin component  1
 
  0.9652
 
spin component  2
 
  0.9622
 
 occupancies and eigenvectors
 
  o =  0.9622  v =  0.0000  1.0000      0.0000  0.0000
  o =  0.9652  v =  1.0000  0.0000      0.0000  0.0000
atom =   2  type =  1  l = 0
 
 onsite density matrix
 
spin component  1
 
  0.9652
 
spin component  2
 
  0.9622
 
 occupancies and eigenvectors
 
  o =  0.9622  v =  0.0000  1.0000      0.0000  0.0000
  o =  0.9652  v =  1.0000  0.0000      0.0000  0.0000
    EDDIAG:  cpu time    0.0090: real time    0.0094
  RMM-DIIS:  cpu time    0.0240: real time    0.0243
    ORTHCH:  cpu time    0.0020: real time    0.0011
       DOS:  cpu time    0.0000: real time    0.0001
    CHARGE:  cpu time    0.0180: real time    0.0187
    MIXING:  cpu time    0.0020: real time    0.0017
    --------------------------------------------
      LOOP:  cpu time    0.3489: real time    0.3507

 eigenvalue-minimisations  :    48
 total energy-change (2. order) :-0.2550318E+00  (-0.7445857E-01)
 number of electron      12.0000120 magnetization       2.0000058
 augmentation part        2.7357551 magnetization       0.8812367

 Broyden mixing:
  rms(total) = 0.20710E+00    rms(broyden)= 0.20672E+00
  rms(prec ) = 0.28487E+00
  weight for this iteration     100.00

 eigenvalues of (default mixing * dielectric matrix)
  average eigenvalue GAMMA=   1.1089
  0.7210  1.4969

 Free energy of the ion-electron system (eV)
  ---------------------------------------------------
  alpha Z        PSCENC =         3.08284289
  Ewald energy   TEWEN  =       -19.52380061
  -Hartree energ DENC   =      -706.30562197
  -exchange      EXHF   =         0.00000000
  -V(xc)+E(xc)   XCENC  =        55.87843373
  PAW double counting   =       730.00682393     -738.14000343
  entropy T*S    EENTRO =         0.00000000
  eigenvalues    EBANDS =      -197.79762918
  atomic energy  EATOM  =       865.98604296
  Solvation  Ediel_sol  =         0.00000000
  ---------------------------------------------------
  free energy    TOTEN  =        -6.81291169 eV

  energy without entropy =       -6.81291169  energy(sigma->0) =       -6.81291169


--------------------------------------------------------------------------------------------------------




----------------------------------------- Iteration    2(   4)  ---------------------------------------


    POTLOK:  cpu time    0.2830: real time    0.2837
    SETDIJ:  cpu time    0.0120: real time    0.0116
atom =   1  type =  1  l = 0
 
 onsite density matrix
 
spin component  1
 
  0.9623
 
spin component  2
 
  0.9609
 
 occupancies and eigenvectors
 
  o =  0.9609  v =  0.0000  1.0000      0.0000  0.0000
  o =  0.9623  v =  1.0000  0.0000      0.0000  0.0000
atom =   2  type =  1  l = 0
 
 onsite density matrix
 
spin component  1
 
  0.9623
 
spin component  2
 
  0.9609
 
 occupancies and eigenvectors
 
  o =  0.9609  v =  0.0000  1.0000      0.0000  0.0000
  o =  0.9623  v =  1.0000  0.0000      0.0000  0.0000
    EDDIAG:  cpu time    0.0090: real time    0.0095
  RMM-DIIS:  cpu time    0.0240: real time    0.0240
    ORTHCH:  cpu time    0.0020: real time    0.0011
       DOS:  cpu time    0.0000: real time    0.0001
    CHARGE:  cpu time    0.0170: real time    0.0175
    MIXING:  cpu time    0.0020: real time    0.0018
    --------------------------------------------
      LOOP:  cpu time    0.3499: real time    0.3519

 eigenvalue-minimisations  :    48
 total energy-change (2. order) : 0.4276940E-01  (-0.3612120E-01)
 number of electron      12.0000118 magnetization       2.0000057
 augmentation part        2.6873277 magnetization       0.8666140

 Broyden mixing:
  rms(total) = 0.60067E-01    rms(broyden)= 0.59912E-01
  rms(prec ) = 0.82210E-01
  weight for this iteration     100.00

 eigenvalues of (default mixing * dielectric matrix)
  average eigenvalue GAMMA=   1.1206
  1.7985  0.8745  0.6888

 Free energy of the ion-electron system (eV)
  ---------------------------------------------------
  alpha Z        PSCENC =         3.08284289
  Ewald energy   TEWEN  =       -19.52380061
  -Hartree energ DENC   =      -712.42925277
  -exchange      EXHF   =         0.00000000
  -V(xc)+E(xc)   XCENC  =        56.25035773
  PAW double counting   =       788.36897718     -796.67105068
  entropy T*S    EENTRO =         0.00000000
  eigenvalues    EBANDS =      -191.83425899
  atomic energy  EATOM  =       865.98604296
  Solvation  Ediel_sol  =         0.00000000
  ---------------------------------------------------
  free energy    TOTEN  =        -6.77014229 eV

  energy without entropy =       -6.77014229  energy(sigma->0) =       -6.77014229


--------------------------------------------------------------------------------------------------------




----------------------------------------- Iteration    2(   5)  ---------------------------------------


    POTLOK:  cpu time    0.2830: real time    0.2825
    SETDIJ:  cpu time    0.0110: real time    0.0115
atom =   1  type =  1  l = 0
 
 onsite density matrix
 
spin component  1
 
  0.9623
 
spin component  2
 
  0.9604
 
 occupancies and eigenvectors
 
  o =  0.9604  v =  0.0000  1.0000      0.0000  0.0000
  o =  0.9623  v =  1.0000  0.0000      0.0000  0.0000
atom =   2  type =  1  l = 0
 
 onsite density matrix
 
spin component  1
 
  0.9623
 
spin component  2
 
  0.9604
 
 occupancies and eigenvectors
 
  o =  0.9604  v =  0.0000  1.0000      0.0000  0.0000
  o =  0.9623  v =  1.0000  0.0000      0.0000  0.0000
    EDDIAG:  cpu time    0.0100: real time    0.0095
  RMM-DIIS:  cpu time    0.0230: real time    0.0243
    ORTHCH:  cpu time    0.0010: real time    0.0011
       DOS:  cpu time    0.0010: real time    0.0001
    CHARGE:  cpu time    0.0170: real time    0.0175
    MIXING:  cpu time    0.0020: real time    0.0019
    --------------------------------------------
      LOOP:  cpu time    0.3489: real time    0.3510

 eigenvalue-minimisations  :    48
 total energy-change (2. order) :-0.1588121E-01  (-0.1475861E-02)
 number of electron      12.0000118 magnetization       2.0000057
 augmentation part        2.6918636 magnetization       0.8675270

 Broyden mixing:
  rms(total) = 0.29758E-01    rms(broyden)= 0.29750E-01
  rms(prec ) = 0.46758E-01
  weight for this iteration     100.00

 eigenvalues of (default mixing * dielectric matrix)
  average eigenvalue GAMMA=   1.1506
  0.6725  0.7949  1.5675  1.5675

 Free energy of the ion-electron system (eV)
  ---------------------------------------------------
  alpha Z        PSCENC =         3.08284289
  Ewald energy   TEWEN  =       -19.52380061
  -Hartree energ DENC   =      -711.41412121
  -exchange      EXHF   =         0.00000000
  -V(xc)+E(xc)   XCENC  =        56.17618268
  PAW double counting   =       794.03960449     -802.21504650
  entropy T*S    EENTRO =         0.00000000
  eigenvalues    EBANDS =      -192.91772819
  atomic energy  EATOM  =       865.98604296
  Solvation  Ediel_sol  =         0.00000000
  ---------------------------------------------------
  free energy    TOTEN  =        -6.78602349 eV

  energy without entropy =       -6.78602349  energy(sigma->0) =       -6.78602349


--------------------------------------------------------------------------------------------------------




----------------------------------------- Iteration    2(   6)  ---------------------------------------


    POTLOK:  cpu time    0.2840: real time    0.2844
    SETDIJ:  cpu time    0.0110: real time    0.0116
atom =   1  type =  1  l = 0
 
 onsite density matrix
 
spin component  1
 
  0.9625
 
spin component  2
 
  0.9600
 
 occupancies and eigenvectors
 
  o =  0.9600  v =  0.0000  1.0000      0.0000  0.0000
  o =  0.9625  v =  1.0000  0.0000      0.0000  0.0000
atom =   2  type =  1  l = 0
 
 onsite density matrix
 
spin component  1
 
  0.9625
 
spin component  2
 
  0.9600
 
 occupancies and eigenvectors
 
  o =  0.9600  v =  0.0000  1.0000      0.0000  0.0000
  o =  0.9625  v =  1.0000  0.0000      0.0000  0.0000
    EDDIAG:  cpu time    0.0100: real time    0.0095
  RMM-DIIS:  cpu time    0.0250: real time    0.0247
    ORTHCH:  cpu time    0.0010: real time    0.0011
       DOS:  cpu time    0.0000: real time    0.0001
    CHARGE:  cpu time    0.0170: real time    0.0174
    MIXING:  cpu time    0.0020: real time    0.0020
    --------------------------------------------
      LOOP:  cpu time    0.3519: real time    0.3534

 eigenvalue-minimisations  :    48
 total energy-change (2. order) :-0.8392627E-02  (-0.8745918E-03)
 number of electron      12.0000118 magnetization       2.0000057
 augmentation part        2.6958949 magnetization       0.8688091

 Broyden mixing:
  rms(total) = 0.15737E-01    rms(broyden)= 0.15728E-01
  rms(prec ) = 0.23819E-01
  weight for this iteration     100.00

 eigenvalues of (default mixing * dielectric matrix)
  average eigenvalue GAMMA=   1.2800
  2.4716  1.6183  0.9312  0.6595  0.7194

 Free energy of the ion-electron system (eV)
  ---------------------------------------------------
  alpha Z        PSCENC =         3.08284289
  Ewald energy   TEWEN  =       -19.52380061
  -Hartree energ DENC   =      -710.50073370
  -exchange      EXHF   =         0.00000000
  -V(xc)+E(xc)   XCENC  =        56.13047990
  PAW double counting   =       803.54005133     -811.59149443
  entropy T*S    EENTRO =         0.00000000
  eigenvalues    EBANDS =      -193.91780445
  atomic energy  EATOM  =       865.98604296
  Solvation  Ediel_sol  =         0.00000000
  ---------------------------------------------------
  free energy    TOTEN  =        -6.79441612 eV

  energy without entropy =       -6.79441612  energy(sigma->0) =       -6.79441612


--------------------------------------------------------------------------------------------------------




----------------------------------------- Iteration    2(   7)  ---------------------------------------


    POTLOK:  cpu time    0.2850: real time    0.2850
    SETDIJ:  cpu time    0.0110: real time    0.0116
atom =   1  type =  1  l = 0
 
 onsite density matrix
 
spin component  1
 
  0.9621
 
spin component  2
 
  0.9604
 
 occupancies and eigenvectors
 
  o =  0.9604  v =  0.0000  1.0000      0.0000  0.0000
  o =  0.9621  v =  1.0000  0.0000      0.0000  0.0000
atom =   2  type =  1  l = 0
 
 onsite density matrix
 
spin component  1
 
  0.9621
 
spin component  2
 
  0.9604
 
 occupancies and eigenvectors
 
  o =  0.9604  v =  0.0000  1.0000      0.0000  0.0000
  o =  0.9621  v =  1.0000  0.0000      0.0000  0.0000
    EDDIAG:  cpu time    0.0100: real time    0.0094
  RMM-DIIS:  cpu time    0.0240: real time    0.0241
    ORTHCH:  cpu time    0.0010: real time    0.0011
       DOS:  cpu time    0.0000: real time    0.0001
    CHARGE:  cpu time    0.0170: real time    0.0175
    MIXING:  cpu time    0.0020: real time    0.0023
    --------------------------------------------
      LOOP:  cpu time    0.3509: real time    0.3537

 eigenvalue-minimisations  :    46
 total energy-change (2. order) :-0.3950131E-03  (-0.1867342E-03)
 number of electron      12.0000118 magnetization       2.0000057
 augmentation part        2.6960410 magnetization       0.8693841

 Broyden mixing:
  rms(total) = 0.54325E-02    rms(broyden)= 0.54273E-02
  rms(prec ) = 0.11805E-01
  weight for this iteration     100.00

 eigenvalues of (default mixing * dielectric matrix)
  average eigenvalue GAMMA=   1.2060
  2.5971  1.5489  0.8714  0.6525  0.7829  0.7829

 Free energy of the ion-electron system (eV)
  ---------------------------------------------------
  alpha Z        PSCENC =         3.08284289
  Ewald energy   TEWEN  =       -19.52380061
  -Hartree energ DENC   =      -710.42276987
  -exchange      EXHF   =         0.00000000
  -V(xc)+E(xc)   XCENC  =        56.12956765
  PAW double counting   =       809.00958060     -817.01760970
  entropy T*S    EENTRO =         0.00000000
  eigenvalues    EBANDS =      -194.03866505
  atomic energy  EATOM  =       865.98604296
  Solvation  Ediel_sol  =         0.00000000
  ---------------------------------------------------
  free energy    TOTEN  =        -6.79481113 eV

  energy without entropy =       -6.79481113  energy(sigma->0) =       -6.79481113


--------------------------------------------------------------------------------------------------------




----------------------------------------- Iteration    2(   8)  ---------------------------------------


    POTLOK:  cpu time    0.2850: real time    0.2863
    SETDIJ:  cpu time    0.0120: real time    0.0116
atom =   1  type =  1  l = 0
 
 onsite density matrix
 
spin component  1
 
  0.9627
 
spin component  2
 
  0.9599
 
 occupancies and eigenvectors
 
  o =  0.9599  v =  0.0000  1.0000      0.0000  0.0000
  o =  0.9627  v =  1.0000  0.0000      0.0000  0.0000
atom =   2  type =  1  l = 0
 
 onsite density matrix
 
spin component  1
 
  0.9627
 
spin component  2
 
  0.9599
 
 occupancies and eigenvectors
 
  o =  0.9599  v =  0.0000  1.0000      0.0000  0.0000
  o =  0.9627  v =  1.0000  0.0000      0.0000  0.0000
    EDDIAG:  cpu time    0.0100: real time    0.0095
  RMM-DIIS:  cpu time    0.0250: real time    0.0252
    ORTHCH:  cpu time    0.0010: real time    0.0011
       DOS:  cpu time    0.0000: real time    0.0001
    CHARGE:  cpu time    0.0180: real time    0.0174
    MIXING:  cpu time    0.0020: real time    0.0023
    --------------------------------------------
      LOOP:  cpu time    0.3539: real time    0.3560

 eigenvalue-minimisations  :    47
 total energy-change (2. order) :-0.2297419E-02  (-0.1428273E-03)
 number of electron      12.0000118 magnetization       2.0000057
 augmentation part        2.6943788 magnetization       0.8688222

 Broyden mixing:
  rms(total) = 0.36540E-02    rms(broyden)= 0.36527E-02
  rms(prec ) = 0.65866E-02
  weight for this iteration     100.00

 eigenvalues of (default mixing * dielectric matrix)
  average eigenvalue GAMMA=   1.2604
  2.6485  1.6944  1.2048  1.2048  0.7393  0.6415  0.6898

 Free energy of the ion-electron system (eV)
  ---------------------------------------------------
  alpha Z        PSCENC =         3.08284289
  Ewald energy   TEWEN  =       -19.52380061
  -Hartree energ DENC   =      -710.68068343
  -exchange      EXHF   =         0.00000000
  -V(xc)+E(xc)   XCENC  =        56.14405853
  PAW double counting   =       809.18781189     -817.21092695
  entropy T*S    EENTRO =         0.00000000
  eigenvalues    EBANDS =      -193.78245382
  atomic energy  EATOM  =       865.98604296
  Solvation  Ediel_sol  =         0.00000000
  ---------------------------------------------------
  free energy    TOTEN  =        -6.79710855 eV

  energy without entropy =       -6.79710855  energy(sigma->0) =       -6.79710855


--------------------------------------------------------------------------------------------------------




----------------------------------------- Iteration    2(   9)  ---------------------------------------


    POTLOK:  cpu time    0.2870: real time    0.2867
    SETDIJ:  cpu time    0.0120: real time    0.0116
atom =   1  type =  1  l = 0
 
 onsite density matrix
 
spin component  1
 
  0.9624
 
spin component  2
 
  0.9604
 
 occupancies and eigenvectors
 
  o =  0.9604  v =  0.0000  1.0000      0.0000  0.0000
  o =  0.9624  v =  1.0000  0.0000      0.0000  0.0000
atom =   2  type =  1  l = 0
 
 onsite density matrix
 
spin component  1
 
  0.9624
 
spin component  2
 
  0.9604
 
 occupancies and eigenvectors
 
  o =  0.9604  v =  0.0000  1.0000      0.0000  0.0000
  o =  0.9624  v =  1.0000  0.0000      0.0000  0.0000
    EDDIAG:  cpu time    0.0090: real time    0.0095
  RMM-DIIS:  cpu time    0.0240: real time    0.0237
    ORTHCH:  cpu time    0.0010: real time    0.0011
       DOS:  cpu time    0.0000: real time    0.0001
    CHARGE:  cpu time    0.0180: real time    0.0175
    MIXING:  cpu time    0.0020: real time    0.0024
    --------------------------------------------
      LOOP:  cpu time    0.3539: real time    0.3551

 eigenvalue-minimisations  :    45
 total energy-change (2. order) :-0.2764355E-02  (-0.1554876E-03)
 number of electron      12.0000118 magnetization       2.0000057
 augmentation part        2.6938137 magnetization       0.8687155

 Broyden mixing:
  rms(total) = 0.31811E-02    rms(broyden)= 0.31804E-02
  rms(prec ) = 0.53126E-02
  weight for this iteration     100.00

 eigenvalues of (default mixing * dielectric matrix)
  average eigenvalue GAMMA=   1.3100
  2.7311  2.3443  1.2956  1.1070  0.9157  0.7677  0.6396  0.6788

 Free energy of the ion-electron system (eV)
  ---------------------------------------------------
  alpha Z        PSCENC =         3.08284289
  Ewald energy   TEWEN  =       -19.52380061
  -Hartree energ DENC   =      -710.73260481
  -exchange      EXHF   =         0.00000000
  -V(xc)+E(xc)   XCENC  =        56.14488268
  PAW double counting   =       808.69770731     -816.72431885
  entropy T*S    EENTRO =         0.00000000
  eigenvalues    EBANDS =      -193.73062446
  atomic energy  EATOM  =       865.98604296
  Solvation  Ediel_sol  =         0.00000000
  ---------------------------------------------------
  free energy    TOTEN  =        -6.79987291 eV

  energy without entropy =       -6.79987291  energy(sigma->0) =       -6.79987291


--------------------------------------------------------------------------------------------------------




----------------------------------------- Iteration    2(  10)  ---------------------------------------


    POTLOK:  cpu time    0.2870: real time    0.2873
    SETDIJ:  cpu time    0.0110: real time    0.0116
atom =   1  type =  1  l = 0
 
 onsite density matrix
 
spin component  1
 
  0.9625
 
spin component  2
 
  0.9603
 
 occupancies and eigenvectors
 
  o =  0.9603  v =  0.0000  1.0000      0.0000  0.0000
  o =  0.9625  v =  1.0000  0.0000      0.0000  0.0000
atom =   2  type =  1  l = 0
 
 onsite density matrix
 
spin component  1
 
  0.9625
 
spin component  2
 
  0.9603
 
 occupancies and eigenvectors
 
  o =  0.9603  v =  0.0000  1.0000      0.0000  0.0000
  o =  0.9625  v =  1.0000  0.0000      0.0000  0.0000
    EDDIAG:  cpu time    0.0100: real time    0.0094
  RMM-DIIS:  cpu time    0.0210: real time    0.0212
    ORTHCH:  cpu time    0.0010: real time    0.0011
       DOS:  cpu time    0.0000: real time    0.0001
    CHARGE:  cpu time    0.0180: real time    0.0175
    MIXING:  cpu time    0.0030: real time    0.0026
    --------------------------------------------
      LOOP:  cpu time    0.3519: real time    0.3534

 eigenvalue-minimisations  :    40
 total energy-change (2. order) :-0.8248233E-03  (-0.2802188E-04)
 number of electron      12.0000118 magnetization       2.0000057
 augmentation part        2.6943467 magnetization       0.8689474

 Broyden mixing:
  rms(total) = 0.13621E-02    rms(broyden)= 0.13615E-02
  rms(prec ) = 0.22372E-02
  weight for this iteration     100.00

 eigenvalues of (default mixing * dielectric matrix)
  average eigenvalue GAMMA=   1.3872
  3.4131  2.5115  1.5279  1.0949  1.0949  0.6293  0.6787  0.8089  0.7253

 Free energy of the ion-electron system (eV)
  ---------------------------------------------------
  alpha Z        PSCENC =         3.08284289
  Ewald energy   TEWEN  =       -19.52380061
  -Hartree energ DENC   =      -710.61840053
  -exchange      EXHF   =         0.00000000
  -V(xc)+E(xc)   XCENC  =        56.13812350
  PAW double counting   =       808.31895657     -816.34211312
  entropy T*S    EENTRO =         0.00000000
  eigenvalues    EBANDS =      -193.84234938
  atomic energy  EATOM  =       865.98604296
  Solvation  Ediel_sol  =         0.00000000
  ---------------------------------------------------
  free energy    TOTEN  =        -6.80069773 eV

  energy without entropy =       -6.80069773  energy(sigma->0) =       -6.80069773


--------------------------------------------------------------------------------------------------------




----------------------------------------- Iteration    2(  11)  ---------------------------------------


    POTLOK:  cpu time    0.2870: real time    0.2874
    SETDIJ:  cpu time    0.0120: real time    0.0116
atom =   1  type =  1  l = 0
 
 onsite density matrix
 
spin component  1
 
  0.9624
 
spin component  2
 
  0.9604
 
 occupancies and eigenvectors
 
  o =  0.9604  v =  0.0000  1.0000      0.0000  0.0000
  o =  0.9624  v =  1.0000  0.0000      0.0000  0.0000
atom =   2  type =  1  l = 0
 
 onsite density matrix
 
spin component  1
 
  0.9624
 
spin component  2
 
  0.9604
 
 occupancies and eigenvectors
 
  o =  0.9604  v =  0.0000  1.0000      0.0000  0.0000
  o =  0.9624  v =  1.0000  0.0000      0.0000  0.0000
    EDDIAG:  cpu time    0.0100: real time    0.0095
  RMM-DIIS:  cpu time    0.0200: real time    0.0199
    ORTHCH:  cpu time    0.0010: real time    0.0011
       DOS:  cpu time    0.0000: real time    0.0001
    CHARGE:  cpu time    0.0170: real time    0.0175
    MIXING:  cpu time    0.0020: real time    0.0027
    --------------------------------------------
      LOOP:  cpu time    0.3499: real time    0.3526

 eigenvalue-minimisations  :    37
 total energy-change (2. order) :-0.3342592E-03  (-0.1236010E-04)
 number of electron      12.0000118 magnetization       2.0000057
 augmentation part        2.6946055 magnetization       0.8690540

 Broyden mixing:
  rms(total) = 0.43585E-03    rms(broyden)= 0.43408E-03
  rms(prec ) = 0.68725E-03
  weight for this iteration     100.00

 eigenvalues of (default mixing * dielectric matrix)
  average eigenvalue GAMMA=   1.4769
  4.1951  2.5789  1.9125  1.2114  1.2114  0.8731  0.8106  0.6248  0.6756  0.6756

 Free energy of the ion-electron system (eV)
  ---------------------------------------------------
  alpha Z        PSCENC =         3.08284289
  Ewald energy   TEWEN  =       -19.52380061
  -Hartree energ DENC   =      -710.56130417
  -exchange      EXHF   =         0.00000000
  -V(xc)+E(xc)   XCENC  =        56.13523325
  PAW double counting   =       808.12421169     -816.14778463
  entropy T*S    EENTRO =         0.00000000
  eigenvalues    EBANDS =      -193.89647337
  atomic energy  EATOM  =       865.98604296
  Solvation  Ediel_sol  =         0.00000000
  ---------------------------------------------------
  free energy    TOTEN  =        -6.80103199 eV

  energy without entropy =       -6.80103199  energy(sigma->0) =       -6.80103199


--------------------------------------------------------------------------------------------------------




----------------------------------------- Iteration    2(  12)  ---------------------------------------


    POTLOK:  cpu time    0.2870: real time    0.2881
    SETDIJ:  cpu time    0.0120: real time    0.0116
atom =   1  type =  1  l = 0
 
 onsite density matrix
 
[...]
     11       3.3420      0.00000
     12       3.4631      0.00000


--------------------------------------------------------------------------------------------------------


 soft charge-density along one line, spin component           1
         0         1         2         3         4         5         6         7         8         9
 total charge-density along one line
 
 soft charge-density along one line, spin component           2
         0         1         2         3         4         5         6         7         8         9
 total charge-density along one line
 
 pseudopotential strength for first ion, spin component:           1
 12.376   0.002   0.000   0.000  -0.441   0.000   0.000  -0.070
  0.002   0.025   0.000   0.000  -0.005   0.000   0.000  -0.001
  0.000   0.000 -11.207   0.000   0.000  -0.510   0.000   0.000
  0.000   0.000   0.000 -11.207   0.000   0.000  -0.510   0.000
 -0.441  -0.005   0.000   0.000 -11.375   0.000   0.000  -0.526
  0.000   0.000  -0.510   0.000   0.000   0.128   0.000   0.000
  0.000   0.000   0.000  -0.510   0.000   0.000   0.128   0.000
 -0.070  -0.001   0.000   0.000  -0.526   0.000   0.000   0.127
 pseudopotential strength for first ion, spin component:           2
 11.973  -0.002   0.000   0.000  -0.435   0.000   0.000  -0.069
 -0.002   0.024   0.000   0.000  -0.006   0.000   0.000  -0.001
  0.000   0.000 -10.250   0.000   0.000  -0.367   0.000   0.000
  0.000   0.000   0.000 -10.250   0.000   0.000  -0.367   0.000
 -0.435  -0.006   0.000   0.000 -10.960   0.000   0.000  -0.462
  0.000   0.000  -0.367   0.000   0.000   0.149   0.000   0.000
  0.000   0.000   0.000  -0.367   0.000   0.000   0.149   0.000
 -0.069  -0.001   0.000   0.000  -0.462   0.000   0.000   0.137
 total augmentation occupancy for first ion, spin component:           1
  1.952   0.114   0.000   0.000  -0.198   0.000   0.000  -0.015
  0.114   1.026   0.000   0.000   0.895   0.000   0.000  -1.514
  0.000   0.000   1.552   0.000   0.000  -0.199   0.000   0.000
  0.000   0.000   0.000   1.552   0.000   0.000  -0.199   0.000
 -0.198   0.895   0.000   0.000   1.503   0.000   0.000  -1.440
  0.000   0.000  -0.199   0.000   0.000   0.419   0.000   0.000
  0.000   0.000   0.000  -0.199   0.000   0.000   0.419   0.000
 -0.015  -1.514   0.000   0.000  -1.440   0.000   0.000   2.266
 total augmentation occupancy for first ion, spin component:           2
  0.027  -0.097   0.000   0.000   0.003   0.000   0.000   0.017
 -0.097  -0.023   0.000   0.000  -0.004   0.000   0.000   0.039
  0.000   0.000   0.496   0.000   0.000   0.380   0.000   0.000
  0.000   0.000   0.000   0.496   0.000   0.000   0.380   0.000
  0.003  -0.004   0.000   0.000  -0.008   0.000   0.000   0.057
  0.000   0.000   0.380   0.000   0.000   0.102   0.000   0.000
  0.000   0.000   0.000   0.380   0.000   0.000   0.102   0.000
  0.017   0.039   0.000   0.000   0.057   0.000   0.000  -0.091


------------------------ aborting loop because EDIFF is reached ----------------------------------------


    CHARGE:  cpu time    0.0170: real time    0.0171
    FORLOC:  cpu time    0.0010: real time    0.0011
    FORNL :  cpu time    0.0140: real time    0.0139
    FORHAR:  cpu time    0.0210: real time    0.0209
    MIXING:  cpu time    0.0020: real time    0.0020
    OFIELD:  cpu time    0.0000: real time    0.0000

 VOLUME and BASIS-vectors are now :
 -----------------------------------------------------------------------------
  energy-cutoff  :      300.00
  volume of cell :      216.00
      direct lattice vectors                 reciprocal lattice vectors
     6.000000000  0.000000000  0.000000000     0.166666667  0.000000000  0.000000000
     0.000000000  6.000000000  0.000000000     0.000000000  0.166666667  0.000000000
     0.000000000  0.000000000  6.000000000     0.000000000  0.000000000  0.166666667

  length of vectors
     6.000000000  6.000000000  6.000000000     0.166666667  0.166666667  0.166666667


 FORCES acting on ions
    electron-ion (+dipol)            ewald-force                    non-local-force                 convergence-correction
 -----------------------------------------------------------------------------------------------
   0.232E+03 0.802E-13 -.726E-06   -.285E+03 -.441E-16 0.282E-16   0.534E+02 -.162E-26 0.000E+00   -.319E-01 -.134E-12 -.516E-12
   -.232E+03 0.936E-12 0.726E-06   0.285E+03 0.804E-16 -.468E-16   -.534E+02 0.162E-26 0.000E+00   0.319E-01 -.318E-12 -.192E-12
 -----------------------------------------------------------------------------------------------
   0.111E-11 0.102E-11 0.998E-12   0.000E+00 0.363E-16 -.186E-16   -.711E-14 0.000E+00 0.000E+00   -.823E-13 -.452E-12 -.708E-12
 
 
 POSITION                                       TOTAL-FORCE (eV/Angst)
 -----------------------------------------------------------------------------------
      2.34292      3.00000      3.00000         0.078699      0.000000      0.000000
      3.65708      3.00000      3.00000        -0.078699      0.000000      0.000000
 -----------------------------------------------------------------------------------
    total drift:                                0.000000      0.000000      0.000000


--------------------------------------------------------------------------------------------------------



  FREE ENERGIE OF THE ION-ELECTRON SYSTEM (eV)
  ---------------------------------------------------
  free  energy   TOTEN  =        -9.02090932 eV

  energy  without entropy=       -9.02090932  energy(sigma->0) =       -9.02090932
 
 d Force = 0.1140423E-01[-0.146E-02, 0.243E-01]  d Energy = 0.1119390E-01 0.210E-03
 d Force = 0.5371509E+01[ 0.529E+01, 0.545E+01]  d Ewald  = 0.5370942E+01 0.567E-03


--------------------------------------------------------------------------------------------------------


    POTLOK:  cpu time    0.2990: real time    0.2986


--------------------------------------------------------------------------------------------------------


 stress matrix after NEB project (eV)
      0.00000      0.00000      0.00000
      0.00000      0.00000      0.00000
      0.00000      0.00000      0.00000
  FORCES: max atom, RMS     0.078699    0.078699
  FORCE total and by dimension    0.111298    0.078699
  Stress total and by dimension    0.000000    0.000000


--------------------------------------------------------------------------------------------------------


    WAVPRE:  cpu time    0.0020: real time    0.0025
 FEWALD executed in parallel
    FEWALD:  cpu time    0.0000: real time    0.0001

 real space projection operators:
  total allocation   :        162.12 KBytes
  max/ min on nodes  :         41.69         38.88

    ORTHCH:  cpu time    0.0050: real time    0.0049
     LOOP+:  cpu time    1.7717: real time    1.7831


----------------------------------------- Iteration    8(   1)  ---------------------------------------


    POTLOK:  cpu time    0.2870: real time    0.2878
    SETDIJ:  cpu time    0.0120: real time    0.0116
atom =   1  type =  1  l = 0
 
 onsite density matrix
 
spin component  1
 
  0.9509
 
spin component  2
 
  0.9495
 
 occupancies and eigenvectors
 
  o =  0.9495  v =  0.0000  1.0000      0.0000  0.0000
  o =  0.9509  v =  1.0000  0.0000      0.0000  0.0000
atom =   2  type =  1  l = 0
 
 onsite density matrix
 
spin component  1
 
  0.9509
 
spin component  2
 
  0.9495
 
 occupancies and eigenvectors
 
  o =  0.9495  v =  0.0000  1.0000      0.0000  0.0000
  o =  0.9509  v =  1.0000  0.0000      0.0000  0.0000
     EDDAV:  cpu time    0.0450: real time    0.0449
       DOS:  cpu time    0.0000: real time    0.0002
    CHARGE:  cpu time    0.0170: real time    0.0173
    MIXING:  cpu time    0.0020: real time    0.0015
    --------------------------------------------
      LOOP:  cpu time    0.3649: real time    0.3662

 eigenvalue-minimisations  :    48
 total energy-change (2. order) :-0.1556158E-03  (-0.1789321E-03)
 number of electron      12.0000137 magnetization       2.0000055
 augmentation part        2.4772586 magnetization       0.8680665

 Broyden mixing:
  rms(total) = 0.22362E-02    rms(broyden)= 0.22254E-02
  rms(prec ) = 0.27632E-02
  weight for this iteration     100.00

 Free energy of the ion-electron system (eV)
  ---------------------------------------------------
  alpha Z        PSCENC =         3.08284289
  Ewald energy   TEWEN  =       -86.18370504
  -Hartree energ DENC   =      -656.24269375
  -exchange      EXHF   =         0.00000000
  -V(xc)+E(xc)   XCENC  =        54.71383472
  PAW double counting   =       714.98849472     -721.93264812
  entropy T*S    EENTRO =         0.00000000
  eigenvalues    EBANDS =      -183.43314204
  atomic energy  EATOM  =       865.98604296
  Solvation  Ediel_sol  =         0.00000000
  ---------------------------------------------------
  free energy    TOTEN  =        -9.02097367 eV

  energy without entropy =       -9.02097367  energy(sigma->0) =       -9.02097367


--------------------------------------------------------------------------------------------------------




----------------------------------------- Iteration    8(   2)  ---------------------------------------


    POTLOK:  cpu time    0.2860: real time    0.2869
    SETDIJ:  cpu time    0.0120: real time    0.0116
atom =   1  type =  1  l = 0
 
 onsite density matrix
 
spin component  1
 
  0.9510
 
spin component  2
 
  0.9494
 
 occupancies and eigenvectors
 
  o =  0.9494  v =  0.0000  1.0000      0.0000  0.0000
  o =  0.9510  v =  1.0000  0.0000      0.0000  0.0000
atom =   2  type =  1  l = 0
 
 onsite density matrix
 
spin component  1
 
  0.9510
 
spin component  2
 
  0.9494
 
 occupancies and eigenvectors
 
  o =  0.9494  v =  0.0000  1.0000      0.0000  0.0000
  o =  0.9510  v =  1.0000  0.0000      0.0000  0.0000
    EDDIAG:  cpu time    0.0090: real time    0.0094
  RMM-DIIS:  cpu time    0.0190: real time    0.0195
    ORTHCH:  cpu time    0.0010: real time    0.0011
       DOS:  cpu time    0.0000: real time    0.0001
    --------------------------------------------
      LOOP:  cpu time    0.3289: real time    0.3307

 eigenvalue-minimisations  :    36
 total energy-change (2. order) : 0.1015835E-04  (-0.7814148E-05)
 number of electron      12.0000137 magnetization       2.0000055
 augmentation part        2.4772586 magnetization       0.8680665

 Free energy of the ion-electron system (eV)
  ---------------------------------------------------
  alpha Z        PSCENC =         3.08284289
  Ewald energy   TEWEN  =       -86.18370504
  -Hartree energ DENC   =      -656.27817274
  -exchange      EXHF   =         0.00000000
  -V(xc)+E(xc)   XCENC  =        54.71628294
  PAW double counting   =       715.01838834     -721.96512528
  entropy T*S    EENTRO =         0.00000000
  eigenvalues    EBANDS =      -183.39751758
  atomic energy  EATOM  =       865.98604296
  Solvation  Ediel_sol  =         0.00000000
  ---------------------------------------------------
  free energy    TOTEN  =        -9.02096351 eV

  energy without entropy =       -9.02096351  energy(sigma->0) =       -9.02096351


--------------------------------------------------------------------------------------------------------




 average (electrostatic) potential at core
  the test charge radii are     0.8742
  (the norm of the test charge is              1.0000)
       1 -74.3474       2 -74.3474
 
 
 
 E-fermi :  -6.7275     XC(G=0):  -2.2662     alpha+bet : -0.6567


 spin component 1

 k-point     1 :       0.0000    0.0000    0.0000
  band No.  band energies     occupation 
      1     -30.6974      1.00000
      2     -20.6873      1.00000
      3     -12.6744      1.00000
      4     -12.1695      1.00000
      5     -12.1695      1.00000
      6      -7.0291      1.00000
      7      -7.0291      1.00000
      8      -0.5026      0.00000
      9       0.3943      0.00000
     10       2.9528      0.00000
     11       3.2624      0.00000
     12       3.2813      0.00000

 spin component 2

 k-point     1 :       0.0000    0.0000    0.0000
  band No.  band energies     occupation 
      1     -29.3983      1.00000
      2     -18.9757      1.00000
      3     -11.7034      1.00000
      4     -10.4319      1.00000
      5     -10.4319      1.00000
      6      -4.9400      0.00000
      7      -4.9400      0.00000
      8      -0.3967      0.00000
      9       1.4808      0.00000
     10       2.9861      0.00000
     11       3.3152      0.00000
     12       3.4417      0.00000


--------------------------------------------------------------------------------------------------------


 soft charge-density along one line, spin component           1
         0         1         2         3         4         5         6         7         8         9
 total charge-density along one line
 
 soft charge-density along one line, spin component           2
         0         1         2         3         4         5         6         7         8         9
 total charge-density along one line
 
 pseudopotential strength for first ion, spin component:           1
 12.376   0.002   0.000   0.000  -0.442   0.000   0.000  -0.071
  0.002   0.025   0.000   0.000  -0.005   0.000   0.000  -0.001
  0.000   0.000 -11.208   0.000   0.000  -0.510   0.000   0.000
  0.000   0.000   0.000 -11.208   0.000   0.000  -0.510   0.000
 -0.442  -0.005   0.000   0.000 -11.377   0.000   0.000  -0.526
  0.000   0.000  -0.510   0.000   0.000   0.128   0.000   0.000
  0.000   0.000   0.000  -0.510   0.000   0.000   0.128   0.000
 -0.071  -0.001   0.000   0.000  -0.526   0.000   0.000   0.127
 pseudopotential strength for first ion, spin component:           2
 11.973  -0.002   0.000   0.000  -0.436   0.000   0.000  -0.069
 -0.002   0.024   0.000   0.000  -0.006   0.000   0.000  -0.001
  0.000   0.000 -10.250   0.000   0.000  -0.367   0.000   0.000
  0.000   0.000   0.000 -10.250   0.000   0.000  -0.367   0.000
 -0.436  -0.006   0.000   0.000 -10.962   0.000   0.000  -0.462
  0.000   0.000  -0.367   0.000   0.000   0.149   0.000   0.000
  0.000   0.000   0.000  -0.367   0.000   0.000   0.149   0.000
 -0.069  -0.001   0.000   0.000  -0.462   0.000   0.000   0.137
 total augmentation occupancy for first ion, spin component:           1
  1.953   0.113   0.000   0.000  -0.198   0.000   0.000  -0.016
  0.113   1.030   0.000   0.000   0.898   0.000   0.000  -1.518
  0.000   0.000   1.552   0.000   0.000  -0.198   0.000   0.000
  0.000   0.000   0.000   1.552   0.000   0.000  -0.198   0.000
 -0.198   0.898   0.000   0.000   1.505   0.000   0.000  -1.441
  0.000   0.000  -0.198   0.000   0.000   0.421   0.000   0.000
  0.000   0.000   0.000  -0.198   0.000   0.000   0.421   0.000
 -0.016  -1.518   0.000   0.000  -1.441   0.000   0.000   2.270
 total augmentation occupancy for first ion, spin component:           2
  0.027  -0.097   0.000   0.000   0.002   0.000   0.000   0.017
 -0.097  -0.023   0.000   0.000  -0.004   0.000   0.000   0.039
  0.000   0.000   0.496   0.000   0.000   0.381   0.000   0.000
  0.000   0.000   0.000   0.496   0.000   0.000   0.381   0.000
  0.002  -0.004   0.000   0.000  -0.008   0.000   0.000   0.057
  0.000   0.000   0.381   0.000   0.000   0.104   0.000   0.000
  0.000   0.000   0.000   0.381   0.000   0.000   0.104   0.000
  0.017   0.039   0.000   0.000   0.057   0.000   0.000  -0.091


------------------------ aborting loop because EDIFF is reached ----------------------------------------


    CHARGE:  cpu time    0.0170: real time    0.0171
    FORLOC:  cpu time    0.0010: real time    0.0011
    FORNL :  cpu time    0.0140: real time    0.0140
    FORHAR:  cpu time    0.0210: real time    0.0209
    MIXING:  cpu time    0.0020: real time    0.0018
    OFIELD:  cpu time    0.0000: real time    0.0000

 VOLUME and BASIS-vectors are now :
 -----------------------------------------------------------------------------
  energy-cutoff  :      300.00
  volume of cell :      216.00
      direct lattice vectors                 reciprocal lattice vectors
     6.000000000  0.000000000  0.000000000     0.166666667  0.000000000  0.000000000
     0.000000000  6.000000000  0.000000000     0.000000000  0.166666667  0.000000000
     0.000000000  0.000000000  6.000000000     0.000000000  0.000000000  0.166666667

  length of vectors
     6.000000000  6.000000000  6.000000000     0.166666667  0.166666667  0.166666667


 FORCES acting on ions
    electron-ion (+dipol)            ewald-force                    non-local-force                 convergence-correction
 -----------------------------------------------------------------------------------------------
   0.232E+03 -.247E-12 -.693E-06   -.286E+03 0.120E-15 -.714E-16   0.535E+02 0.485E-26 0.162E-26   0.429E-02 0.155E-12 -.904E-12
   -.232E+03 0.402E-12 0.693E-06   0.286E+03 -.832E-16 0.528E-16   -.535E+02 -.646E-26 0.000E+00   -.429E-02 0.119E-12 0.752E-12
 -----------------------------------------------------------------------------------------------
   0.284E-13 0.155E-12 0.618E-12   0.000E+00 0.363E-16 -.186E-16   0.000E+00 -.162E-26 0.162E-26   0.585E-12 0.273E-12 -.152E-12
 
 
 POSITION                                       TOTAL-FORCE (eV/Angst)
 -----------------------------------------------------------------------------------
      2.34348      3.00000      3.00000        -0.001170      0.000000      0.000000
      3.65652      3.00000      3.00000         0.001170      0.000000      0.000000
 -----------------------------------------------------------------------------------
    total drift:                                0.000000      0.000000      0.000000


--------------------------------------------------------------------------------------------------------



  FREE ENERGIE OF THE ION-ELECTRON SYSTEM (eV)
  ---------------------------------------------------
  free  energy   TOTEN  =        -9.02096351 eV

  energy  without entropy=       -9.02096351  energy(sigma->0) =       -9.02096351
 
 d Force = 0.4360975E-04[-0.132E-05, 0.885E-04]  d Energy = 0.5418969E-04-0.106E-04
 d Force =-0.3209670E+00[-0.321E+00,-0.321E+00]  d Ewald  =-0.3209669E+00-0.123E-06


--------------------------------------------------------------------------------------------------------


    POTLOK:  cpu time    0.2990: real time    0.2985


--------------------------------------------------------------------------------------------------------


 stress matrix after NEB project (eV)
      0.00000      0.00000      0.00000
      0.00000      0.00000      0.00000
      0.00000      0.00000      0.00000
  FORCES: max atom, RMS     0.001170    0.001170
  FORCE total and by dimension    0.001655    0.001170
  Stress total and by dimension    0.000000    0.000000


--------------------------------------------------------------------------------------------------------


  
 reached required accuracy - stopping structural energy minimisation
     LOOP+:  cpu time    1.0548: real time    1.0602
    4ORBIT:  cpu time    0.0000: real time    0.0000

 total amount of memory used by VASP on root node    33222. kBytes
========================================================================

   base      :      30000. kBytes
   nonlr-proj:         94. kBytes
   fftplans  :        931. kBytes
   grid      :       2069. kBytes
   one-center:          6. kBytes
   wavefun   :        122. kBytes
 
  
  
 General timing and accounting informations for this job:
 ========================================================
  
                  Total CPU time used (sec):       26.211
                            User time (sec):       25.862
                          System time (sec):        0.349
                         Elapsed time (sec):       26.575
  
                   Maximum memory used (kb):       33764.
                   Average memory used (kb):           0.
  
                          Minor page faults:         5852
                          Major page faults:            8
                 Voluntary context switches:         1899
