<?xml version="1.0" encoding="ISO-8859-1"?>
<modeling>
 <generator>
  <i name="program" type="string">vasp </i>
  <i name="version" type="string">5.4.1  </i>
  <i name="subversion" type="string">24Jun15 (build Jan 06 2016 13:10:00) complex                          parallel </i>
  <i name="platform" type="string">IFC91_ompi </i>
  <i name="date" type="string">2016 03 01 </i>
  <i name="time" type="string">14:34:17 </i>
 </generator>
 <incar>
  <i type="string" name="PREC">normal</i>
  <i type="string" name="ALGO"> Fast</i>
  <i type="int" name="ISPIN">     2</i>
  <i type="int" name="ICHARG">     1</i>
  <i type="int" name="NELM">   100</i>
  <i type="int" name="IBRION">     2</i>
  <i name="EDIFF">      0.00010000</i>
  <i name="EDIFFG">     -0.01000000</i>
  <i type="int" name="NSW">    99</i>
  <i type="int" name="ISIF">     0</i>
  <i name="ENCUT">    300.00000000</i>
  <i type="string" name="LREAL"> Auto</i>
  <i type="int" name="ISMEAR">     0</i>
  <i name="SIGMA">      0.05000000</i>
  <i type="int" name="LMAXMIX">     4</i>
  <i type="logical" name="LWAVE"> F  </i>
  <v type="int" name="KPOINT_BSE">    -1     0     0     0</v>
  <i type="int" name="NELM">   100</i>
  <i type="logical" name="LDAU"> T  </i>
  <v type="int" name="LDAUTYPE">     2</v>
  <v type="int" name="LDAUL">     0</v>
  <v name="LDAUU">      0.00000000</v>
  <v name="LDAUJ">      0.00000000</v>
  <i type="int" name="LDAUPRINT">     1</i>
 </incar>
 <kpoints>
  <generation param="Monkhorst-Pack">
   <v type="int" name="divisions">       1        1        1 </v>
   <v name="usershift">      0.00000000       0.00000000       0.00000000 </v>
   <v name="genvec1">      1.00000000       0.00000000       0.00000000 </v>
   <v name="genvec2">      0.00000000       1.00000000       0.00000000 </v>
   <v name="genvec3">      0.00000000       0.00000000       1.00000000 </v>
   <v name="shift">      0.00000000       0.00000000       0.00000000 </v>
  </generation>
  <varray name="kpointlist" >
   <v>       0.00000000       0.00000000       0.00000000 </v>
  </varray>
  <varray name="weights" >
   <v>       1.00000000 </v>
  </varray>
 </kpoints>
 <parameters>
  <separator name="general" >
   <i type="string" name="SYSTEM">unknown system</i>
   <i type="logical" name="LCOMPAT"> F  </i>
  </separator>
  <separator name="electronic" >
   <i type="string" name="PREC">normal</i>
   <i name="ENMAX">    300.00000000</i>
   <i name="ENAUG">    412.35200000</i>
   <i name="EDIFF">      0.00010000</i>
   <i type="int" name="IALGO">    68</i>
   <i type="int" name="IWAVPR">    11</i>
   <i type="int" name="NBANDS">    12</i>
   <i name="NELECT">     12.00000000</i>
   <i type="int" name="TURBO">     0</i>
   <i type="int" name="IRESTART">     0</i>
   <i type="int" name="NREBOOT">     0</i>
   <i type="int" name="NMIN">     0</i>
   <i name="EREF">      0.00000000</i>
   <separator name="electronic smearing" >
    <i type="int" name="ISMEAR">     0</i>
    <i name="SIGMA">      0.05000000</i>
    <i name="KSPACING">      0.50000000</i>
    <i type="logical" name="KGAMMA"> T  </i>
   </separator>
   <separator name="electronic projectors" >
    <i type="logical" name="LREAL"> T  </i>
    <v name="ROPT">     -0.00050000</v>
    <i type="int" name="LMAXPAW">  -100</i>
    <i type="int" name="LMAXMIX">     4</i>
    <i type="logical" name="NLSPLINE"> F  </i>
   </separator>
   <separator name="electronic startup" >
    <i type="int" name="ISTART">     0</i>
    <i type="int" name="ICHARG">     1</i>
    <i type="int" name="INIWAV">     1</i>
   </separator>
   <separator name="electronic spin" >
    <i type="int" name="ISPIN">     2</i>
    <i type="logical" name="LNONCOLLINEAR"> F  </i>
    <v name="MAGMOM">      1.00000000      1.00000000</v>
    <i name="NUPDOWN">     -1.00000000</i>
    <i type="logical" name="LSORBIT"> F  </i>
    <v name="SAXIS">      0.00000000      0.00000000      1.00000000</v>
    <i type="logical" name="LSPIRAL"> F  </i>
    <v name="QSPIRAL">      0.00000000      0.00000000      0.00000000</v>
    <i type="logical" name="LZEROZ"> F  </i>
   </separator>
   <separator name="electronic exchange-correlation" >
    <i type="logical" name="LASPH"> F  </i>
    <i type="logical" name="LMETAGGA"> F  </i>
   </separator>
   <separator name="electronic convergence" >
    <i type="int" name="NELM">   100</i>
    <i type="int" name="NELMDL">    -5</i>
    <i type="int" name="NELMIN">     2</i>
    <i name="ENINI">    300.00000000</i>
    <separator name="electronic convergence detail" >
     <i type="logical" name="LDIAG"> T  </i>
     <i type="logical" name="LSUBROT"> F  </i>
     <i name="WEIMIN">      0.00100000</i>
     <i name="EBREAK">      0.00000208</i>
     <i name="DEPER">      0.30000000</i>
     <i type="int" name="NRMM">     4</i>
     <i name="TIME">      0.40000000</i>
    </separator>
   </separator>
   <separator name="electronic mixer" >
    <i name="AMIX">      0.40000000</i>
    <i name="BMIX">      1.00000000</i>
    <i name="AMIN">      0.10000000</i>
    <i name="AMIX_MAG">      1.60000000</i>
    <i name="BMIX_MAG">      1.00000000</i>
    <separator name="electronic mixer details" >
     <i type="int" name="IMIX">     4</i>
     <i type="logical" name="MIXFIRST"> F  </i>
     <i type="int" name="MAXMIX">   -45</i>
     <i name="WC">    100.00000000</i>
     <i type="int" name="INIMIX">     1</i>
     <i type="int" name="MIXPRE">     1</i>
     <i type="int" name="MREMOVE">     5</i>
    </separator>
   </separator>
   <separator name="electronic dipolcorrection" >
    <i type="logical" name="LDIPOL"> F  </i>
    <i type="logical" name="LMONO"> F  </i>
    <i type="int" name="IDIPOL">     0</i>
    <i name="EPSILON">      1.00000000</i>
    <v name="DIPOL">   -100.00000000   -100.00000000   -100.00000000</v>
    <i name="EFIELD">      0.00000000</i>
   </separator>
  </separator>
  <separator name="grids" >
   <i type="int" name="NGX">    28</i>
   <i type="int" name="NGY">    28</i>
   <i type="int" name="NGZ">    28</i>
   <i type="int" name="NGXF">    56</i>
   <i type="int" name="NGYF">    56</i>
   <i type="int" name="NGZF">    56</i>
   <i type="logical" name="ADDGRID"> F  </i>
  </separator>
  <separator name="ionic" >
   <i type="int" name="NSW">    99</i>
   <i type="int" name="IBRION">     2</i>
   <i type="int" name="ISIF">     0</i>
   <i name="PSTRESS">      0.00000000</i>
   <i name="EDIFFG">     -0.01000000</i>
   <i type="int" name="NFREE">     1</i>
   <i name="POTIM">      0.50000000</i>
   <i name="SMASS">     -3.00000000</i>
   <i name="SCALEE">      1.00000000</i>
  </separator>
  <separator name="ionic md" >
   <i name="TEBEG">      0.00010000</i>
   <i name="TEEND">      0.00010000</i>
   <i type="int" name="NBLOCK">     1</i>
   <i type="int" name="KBLOCK">    99</i>
   <i type="int" name="NPACO">   256</i>
   <i name="APACO">     16.00000000</i>
  </separator>
  <separator name="symmetry" >
   <i type="int" name="ISYM">     2</i>
   <i name="SYMPREC">      0.00001000</i>
  </separator>
  <separator name="dos" >
   <i type="logical" name="LORBIT"> F  </i>
   <v name="RWIGS">     -1.00000000</v>
   <i type="int" name="NEDOS">   301</i>
   <i name="EMIN">     10.00000000</i>
   <i name="EMAX">    -10.00000000</i>
   <i name="EFERMI">      0.00000000</i>
  </separator>
  <separator name="writing" >
   <i type="int" name="NWRITE">     2</i>
   <i type="logical" name="LWAVE"> F  </i>
   <i type="logical" name="LCHARG"> T  </i>
   <i type="logical" name="LPARD"> F  </i>
   <i type="logical" name="LVTOT"> F  </i>
   <i type="logical" name="LVHAR"> F  </i>
   <i type="logical" name="LELF"> F  </i>
   <i type="logical" name="LOPTICS"> F  </i>
   <v name="STM">      0.00000000      0.00000000      0.00000000      0.00000000      0.00000000      0.00000000      0.00000000</v>
  </separator>
  <separator name="performance" >
   <i type="int" name="NPAR">     2</i>
   <i type="int" name="NSIM">     4</i>
   <i type="int" name="NBLK">    -1</i>
   <i type="logical" name="LPLANE"> T  </i>
   <i type="logical" name="LSCALAPACK"> T  </i>
   <i type="logical" name="LSCAAWARE"> F  </i>
   <i type="logical" name="LSCALU"> F  </i>
   <i type="logical" name="LASYNC"> F  </i>
   <i type="logical" name="LORBITALREAL"> F  </i>
  </separator>
  <separator name="miscellaneous" >
   <i type="int" name="IDIOT">     3</i>
   <i type="logical" name="LMUSIC"> F  </i>
   <v name="POMASS">     16.00000000</v>
   <v name="DARWINR">      0.00000000</v>
   <v name="DARWINV">      1.00000000</v>
   <i type="logical" name="LCORR"> T  </i>
  </separator>
  <i type="logical" name="GGA_COMPAT"> T  </i>
  <i type="logical" name="LBERRY"> F  </i>
  <i type="int" name="ICORELEVEL">     0</i>
  <i type="logical" name="LDAU"> T  </i>
  <v type="int" name="LDAUTYPE">     2</v>
  <v type="int" name="LDAUL">     0</v>
  <v name="LDAUU">      0.00000000</v>
  <v name="LDAUJ">      0.00000000</v>
  <i type="int" name="LDAUPRINT">     1</i>
  <i type="int" name="I_CONSTRAINED_M">     0</i>
  <separator name="electronic exchange-correlation" >
   <i type="string" name="GGA">--</i>
   <i type="int" name="VOSKOWN">     0</i>
   <i type="logical" name="LHFCALC"> F  </i>
   <i type="string" name="PRECFOCK"></i>
   <i type="logical" name="LSYMGRAD"> F  </i>
   <i type="logical" name="LHFONE"> F  </i>
   <i type="logical" name="LRHFCALC"> F  </i>
   <i type="logical" name="LTHOMAS"> F  </i>
   <i type="logical" name="LMODELHF"> F  </i>
   <i name="ENCUT4O">     -1.00000000</i>
   <i type="int" name="EXXOEP">     0</i>
   <i type="int" name="FOURORBIT">     0</i>
   <i name="AEXX">      0.00000000</i>
   <i name="HFALPHA">      0.00000000</i>
   <i name="MCALPHA">      0.00000000</i>
   <i name="ALDAX">      1.00000000</i>
   <i name="AGGAX">      1.00000000</i>
   <i name="ALDAC">      1.00000000</i>
   <i name="AGGAC">      1.00000000</i>
   <i type="int" name="NKREDX">     1</i>
   <i type="int" name="NKREDY">     1</i>
   <i type="int" name="NKREDZ">     1</i>
   <i type="logical" name="SHIFTRED"> F  </i>
   <i type="logical" name="ODDONLY"> F  </i>
   <i type="logical" name="EVENONLY"> F  </i>
   <i type="int" name="LMAXFOCK">     0</i>
   <i type="int" name="NMAXFOCKAE">     0</i>
   <i type="logical" name="LFOCKAEDFT"> F  </i>
   <i name="HFSCREEN">      0.00000000</i>
   <i name="HFSCREENC">      0.00000000</i>
   <i type="int" name="NBANDSGWLOW">     0</i>
  </separator>
  <separator name="vdW DFT" >
   <i type="logical" name="LUSE_VDW"> F  </i>
   <i name="Zab_VDW">     -0.84910000</i>
   <i name="PARAM1">      0.12340000</i>
   <i name="PARAM2">      1.00000000</i>
   <i name="PARAM3">      0.00000000</i>
  </separator>
  <separator name="model GW" >
   <i type="int" name="MODEL_GW">     0</i>
   <i name="MODEL_EPS0">     64.80000000</i>
   <i name="MODEL_ALPHA">      1.00000000</i>
  </separator>
  <separator name="linear response parameters" >
   <i type="logical" name="LEPSILON"> F  </i>
   <i type="logical" name="LRPA"> F  </i>
   <i type="logical" name="LNABLA"> F  </i>
   <i type="logical" name="LVEL"> F  </i>
   <i type="int" name="KINTER">     0</i>
   <i name="CSHIFT">      0.10000000</i>
   <i name="OMEGAMAX">     -1.00000000</i>
   <i name="DEG_THRESHOLD">      0.00200000</i>
  </separator>
  <separator name="orbital magnetization" >
   <i type="logical" name="NUCIND"> F  </i>
   <v name="MAGPOS">      0.00000000      0.00000000      0.00000000</v>
   <i type="logical" name="LNICSALL"> T  </i>
   <i type="logical" name="ORBITALMAG"> F  </i>
   <i type="logical" name="LMAGBLOCH"> F  </i>
   <i type="logical" name="LCHIMAG"> F  </i>
   <i type="logical" name="LGAUGE"> T  </i>
   <i type="int" name="MAGATOM">     0</i>
   <v name="MAGDIPOL">      0.00000000      0.00000000      0.00000000</v>
   <v name="AVECCONST">      0.00000000      0.00000000      0.00000000</v>
  </separator>
  <separator name="response functions" >
   <i type="logical" name="LADDER"> F  </i>
   <i type="logical" name="LFXC"> F  </i>
   <i type="logical" name="LHARTREE"> T  </i>
   <i type="int" name="IBSE">     0</i>
   <v type="int" name="KPOINT">    -1     0     0     0</v>
   <i type="logical" name="LTCTE"> F  </i>
   <i type="logical" name="LTETE"> F  </i>
   <i type="logical" name="LTRIPLET"> F  </i>
   <i type="logical" name="LFXCEPS"> F  </i>
   <i type="logical" name="LFXHEG"> F  </i>
   <i type="int" name="NATURALO">     0</i>
   <i type="logical" name="L2ORDER"> F  </i>
   <i type="logical" name="LUSEW"> F  </i>
   <i name="ENCUTGW">     -2.00000000</i>
   <i name="ENCUTGWSOFT">     -2.00000000</i>
   <i name="ENCUTLF">     -1.00000000</i>
   <i type="int" name="LMAXMP2">    -1</i>
   <i name="SCISSOR">      0.00000000</i>
   <i type="int" name="NOMEGA">     0</i>
   <i type="int" name="NOMEGAR">     0</i>
   <i type="int" name="NBANDSGW">    -1</i>
   <i type="int" name="NBANDSO">    -1</i>
   <i type="int" name="NBANDSV">    -1</i>
   <i type="int" name="NELM">   100</i>
   <i type="int" name="NELMHF">     1</i>
   <i type="int" name="DIM">     3</i>
   <i type="int" name="ANTIRES">     0</i>
   <i name="OMEGAMAX">    -30.00000000</i>
   <i name="OMEGAMIN">    -30.00000000</i>
   <i name="OMEGATL">   -200.00000000</i>
   <i type="int" name="OMEGAGRID">     0</i>
   <i name="CSHIFT">     -0.10000000</i>
   <i type="logical" name="SELFENERGY"> F  </i>
   <i type="logical" name="LSPECTRAL"> F  </i>
   <i type="logical" name="LSPECTRALGW"> F  </i>
   <i type="logical" name="LSINGLES"> F  </i>
   <i type="logical" name="LFERMIGW"> F  </i>
   <i type="logical" name="ODDONLYGW"> F  </i>
   <i type="logical" name="EVENONLYGW"> F  </i>
   <i type="int" name="NKREDLFX">     1</i>
   <i type="int" name="NKREDLFY">     1</i>
   <i type="int" name="NKREDLFZ">     1</i>
   <i type="int" name="MAXMEM">  1800</i>
   <i type="int" name="TELESCOPE">     0</i>
   <i type="int" name="TAUPAR">     1</i>
   <i type="int" name="OMEGAPAR">    -1</i>
   <i name="LAMBDA">      1.00000000</i>
  </separator>
  <separator name="External order field" >
   <i name="OFIELD_KAPPA">      0.00000000</i>
   <v name="OFIELD_K">      0.00000000      0.00000000      0.00000000</v>
   <i name="OFIELD_Q6_NEAR">      0.00000000</i>
   <i name="OFIELD_Q6_FAR">      0.00000000</i>
   <i name="OFIELD_A">      0.00000000</i>
  </separator>
  <separator name="solvation model" >
   <i type="logical" name="LSOL"> F  </i>
  </separator>
 </parameters>
 <atominfo>
  <atoms>       2 </atoms>
  <types>       1 </types>
  <array name="atoms" >
   <dimension dim="1">ion</dimension>
   <field type="string">element</field>
   <field type="int">atomtype</field>
   <set>
    <rc><c>O </c><c>   1</c></rc>
    <rc><c>O </c><c>   1</c></rc>
   </set>
  </array>
  <array name="atomtypes" >
   <dimension dim="1">type</dimension>
   <field type="int">atomspertype</field>
   <field type="string">element</field>
   <field>mass</field>
   <field>valence</field>
   <field type="string">pseudopotential</field>
   <set>
    <rc><c>   2</c><c>O </c><c>     16.00000000</c><c>      6.00000000</c><c>  PAW O_s                               </c></rc>
   </set>
  </array>
 </atominfo>
 <structure name="initialpos" >
  <crystal>
   <varray name="basis" >
    <v>       6.00000000       0.00000000       0.00000000 </v>
    <v>       0.00000000       6.00000000       0.00000000 </v>
    <v>       0.00000000       0.00000000       6.00000000 </v>
   </varray>
   <i name="volume">    216.00000000 </i>
   <varray name="rec_basis" >
    <v>       0.16666667       0.00000000       0.00000000 </v>
    <v>       0.00000000       0.16666667       0.00000000 </v>
    <v>       0.00000000       0.00000000       0.16666667 </v>
   </varray>
  </crystal>
  <varray name="positions" >
   <v>       0.35000000       0.50000000       0.50000000 </v>
   <v>       0.65000000       0.50000000       0.50000000 </v>
  </varray>
  <varray name="selective"  type="logical" >
   <v type="logical" >  T  T  T </v>
   <v type="logical" >  T  T  T </v>
  </varray>
  <nose>
   <v>      -3.00000000       0.00000000       0.00010000       0.00010000 </v>
  </nose>
 </structure>
 <calculation>
  <scstep>
   <time name="dav">    0.06    0.06</time>
   <time name="total">    0.36    0.36</time>
   <energy>
    <i name="alphaZ">      3.08284289 </i>
    <i name="ewald">   -183.76577248 </i>
    <i name="hartreedc">   -567.36551434 </i>
    <i name="XCdc">     52.90821922 </i>
    <i name="pawpsdc">    605.16383476 </i>
    <i name="pawaedc">   -612.21278690 </i>
    <i name="eentropy">      0.00000000 </i>
    <i name="bandstr">   -131.86132117 </i>
    <i name="atom">    865.98604296 </i>
    <i name="e_fr_energy">     31.93554494 </i>
    <i name="e_wo_entrp">     31.93554494 </i>
    <i name="e_0_energy">     31.93554494 </i>
   </energy>
  </scstep>
  <scstep>
   <time name="dav">    0.05    0.05</time>
   <time name="total">    0.05    0.06</time>
   <energy>
    <i name="e_fr_energy">     -4.67999738 </i>
    <i name="e_wo_entrp">     -4.67999738 </i>
    <i name="e_0_energy">     -4.67999738 </i>
   </energy>
  </scstep>
  <scstep>
   <time name="dav">    0.04    0.04</time>
   <time name="total">    0.04    0.05</time>
   <energy>
    <i name="e_fr_energy">     -5.93782361 </i>
    <i name="e_wo_entrp">     -5.93782361 </i>
    <i name="e_0_energy">     -5.93782361 </i>
   </energy>
  </scstep>
  <scstep>
   <time name="dav">    0.05    0.05</time>
   <time name="total">    0.05    0.05</time>
   <energy>
    <i name="e_fr_energy">     -5.94263512 </i>
    <i name="e_wo_entrp">     -5.94263512 </i>
    <i name="e_0_energy">     -5.94263512 </i>
   </energy>
  </scstep>
  <scstep>
   <time name="dav">    0.04    0.04</time>
   <time name="total">    0.06    0.06</time>
   <energy>
    <i name="e_fr_energy">     -5.94266840 </i>
    <i name="e_wo_entrp">     -5.94266840 </i>
    <i name="e_0_energy">     -5.94266840 </i>
   </energy>
  </scstep>
  <scstep>
   <time name="diag">    0.01    0.01</time>
   <time name="diis">    0.03    0.03</time>
   <time name="orth">    0.00    0.00</time>
   <time name="total">    0.36    0.37</time>
   <energy>
    <i name="e_fr_energy">     -5.89123395 </i>
    <i name="e_wo_entrp">     -5.89123395 </i>
    <i name="e_0_energy">     -5.89123395 </i>
   </energy>
  </scstep>
  <scstep>
   <time name="diag">    0.01    0.01</time>
   <time name="diis">    0.02    0.02</time>
   <time name="orth">    0.00    0.00</time>
   <time name="total">    0.35    0.36</time>
   <energy>
    <i name="e_fr_energy">     -5.97720246 </i>
    <i name="e_wo_entrp">     -5.97720246 </i>
    <i name="e_0_energy">     -5.97720246 </i>
   </energy>
  </scstep>
  <scstep>
   <time name="diag">    0.01    0.01</time>
   <time name="diis">    0.03    0.03</time>
   <time name="orth">    0.00    0.00</time>
   <time name="total">    0.35    0.36</time>
   <energy>
    <i name="e_fr_energy">     -5.98169770 </i>
    <i name="e_wo_entrp">     -5.98169770 </i>
    <i name="e_0_energy">     -5.98169770 </i>
   </energy>
  </scstep>
  <scstep>
   <time name="diag">    0.01    0.01</time>
   <time name="diis">    0.02    0.02</time>
   <time name="orth">    0.00    0.00</time>
   <time name="total">    0.35    0.36</time>
   <energy>
    <i name="e_fr_energy">     -5.98294625 </i>
    <i name="e_wo_entrp">     -5.98294625 </i>
    <i name="e_0_energy">     -5.98294625 </i>
   </energy>
  </scstep>
  <scstep>
   <time name="diag">    0.01    0.01</time>
   <time name="diis">    0.02    0.02</time>
   <time name="orth">    0.00    0.00</time>
   <time name="total">    0.35    0.35</time>
   <energy>
    <i name="e_fr_energy">     -5.98353656 </i>
    <i name="e_wo_entrp">     -5.98353656 </i>
    <i name="e_0_energy">     -5.98353656 </i>
   </energy>
  </scstep>
  <scstep>
   <time name="diag">    0.01    0.01</time>
   <time name="diis">    0.02    0.02</time>
   <time name="orth">    0.00    0.00</time>
   <time name="total">    0.33    0.33</time>
   <energy>
    <i name="alphaZ">      3.08284289 </i>
    <i name="ewald">   -183.76577248 </i>
    <i name="hartreedc">   -565.11157758 </i>
    <i name="XCdc">     52.90625141 </i>
    <i name="pawpsdc">    614.90724109 </i>
    <i name="pawaedc">   -621.58195695 </i>
    <i name="eentropy">      0.00000000 </i>
    <i name="bandstr">   -172.40665807 </i>
    <i name="atom">    865.98604296 </i>
    <i name="e_fr_energy">     -5.98358674 </i>
    <i name="e_wo_entrp">     -5.98358674 </i>
    <i name="e_0_energy">     -5.98358674 </i>
   </energy>
  </scstep>
  <structure>
   <crystal>
    <varray name="basis" >
     <v>       6.00000000       0.00000000       0.00000000 </v>
     <v>       0.00000000       6.00000000       0.00000000 </v>
     <v>       0.00000000       0.00000000       6.00000000 </v>
    </varray>
    <i name="volume">    216.00000000 </i>
    <varray name="rec_basis" >
     <v>       0.16666667       0.00000000       0.00000000 </v>
     <v>       0.00000000       0.16666667       0.00000000 </v>
     <v>       0.00000000       0.00000000       0.16666667 </v>
    </varray>
   </crystal>
   <varray name="positions" >
    <v>       0.35000000       0.50000000       0.50000000 </v>
    <v>       0.65000000       0.50000000       0.50000000 </v>
   </varray>
  </structure>
  <varray name="forces" >
   <v>       7.08044406       0.00000000       0.00000000 </v>
   <v>      -7.08044406       0.00000000       0.00000000 </v>
  </varray>
  <energy>
   <i name="e_fr_energy">     -5.98358674 </i>
   <i name="e_wo_entrp">     -5.98358674 </i>
   <i name="e_0_energy">      0.00000000 </i>
  </energy>
  <time name="totalsc">    3.49    3.56</time>
 </calculation>
 <calculation>
  <scstep>
   <time name="dav">    0.05    0.05</time>
   <time name="total">    0.37    0.37</time>
   <energy>
    <i name="alphaZ">      3.08284289 </i>
    <i name="ewald">    -19.52380061 </i>
    <i name="hartreedc">   -697.04631705 </i>
    <i name="XCdc">     55.24035062 </i>
    <i name="pawpsdc">    614.83764030 </i>
    <i name="pawaedc">   -621.51032840 </i>
    <i name="eentropy">      0.00000000 </i>
    <i name="bandstr">   -205.81715767 </i>
    <i name="atom">    865.98604296 </i>
    <i name="e_fr_energy">     -4.75072697 </i>
    <i name="e_wo_entrp">     -4.75072697 </i>
    <i name="e_0_energy">     -4.75072697 </i>
   </energy>
  </scstep>
  <scstep>
   <time name="diag">    0.01    0.01</time>
   <time name="diis">    0.02    0.02</time>
   <time name="orth">    0.00    0.00</time>
   <time name="total">    0.35    0.35</time>
   <energy>
    <i name="e_fr_energy">     -6.55787994 </i>
    <i name="e_wo_entrp">     -6.55787994 </i>
    <i name="e_0_energy">     -6.55787994 </i>
   </energy>
  </scstep>
  <scstep>
   <time name="diag">    0.01    0.01</time>
   <time name="diis">    0.02    0.02</time>
   <time name="orth">    0.00    0.00</time>
   <time name="total">    0.35    0.35</time>
   <energy>
    <i name="e_fr_energy">     -6.81291169 </i>
    <i name="e_wo_entrp">     -6.81291169 </i>
    <i name="e_0_energy">     -6.81291169 </i>
   </energy>
  </scstep>
  <scstep>
   <time name="diag">    0.01    0.01</time>
   <time name="diis">    0.02    0.02</time>
   <time name="orth">    0.00    0.00</time>
   <time name="total">    0.35    0.35</time>
   <energy>
    <i name="e_fr_energy">     -6.77014229 </i>
    <i name="e_wo_entrp">     -6.77014229 </i>
    <i name="e_0_energy">     -6.77014229 </i>
   </energy>
  </scstep>
  <scstep>
   <time name="diag">    0.01    0.01</time>
   <time name="diis">    0.02    0.02</time>
   <time name="orth">    0.00    0.00</time>
   <time name="total">    0.35    0.35</time>
   <energy>
    <i name="e_fr_energy">     -6.78602349 </i>
    <i name="e_wo_entrp">     -6.78602349 </i>
    <i name="e_0_energy">     -6.78602349 </i>
   </energy>
  </scstep>
  <scstep>
   <time name="diag">    0.01    0.01</time>
   <time name="diis">    0.02    0.02</time>
   <time name="orth">    0.00    0.00</time>
   <time name="total">    0.35    0.35</time>
   <energy>
    <i name="e_fr_energy">     -6.79441612 </i>
    <i name="e_wo_entrp">     -6.79441612 </i>
    <i name="e_0_energy">     -6.79441612 </i>
   </energy>
  </scstep>
  <scstep>
   <time name="diag">    0.01    0.01</time>
   <time name="diis">    0.02    0.02</time>
   <time name="orth">    0.00    0.00</time>
   <time name="total">    0.35    0.35</time>
   <energy>
    <i name="e_fr_energy">     -6.79481113 </i>
    <i name="e_wo_entrp">     -6.79481113 </i>
    <i name="e_0_energy">     -6.79481113 </i>
   </energy>
  </scstep>
  <scstep>
   <time name="diag">    0.01    0.01</time>
   <time name="diis">    0.02    0.03</time>
   <time name="orth">    0.00    0.00</time>
   <time name="total">    0.35    0.36</time>
   <energy>
    <i name="e_fr_energy">     -6.79710855 </i>
    <i name="e_wo_entrp">     -6.79710855 </i>
    <i name="e_0_energy">     -6.79710855 </i>
   </energy>
  </scstep>
  <scstep>
   <time name="diag">    0.01    0.01</time>
   <time name="diis">    0.02    0.02</time>
   <time name="orth">    0.00    0.00</time>
   <time name="total">    0.35    0.36</time>
   <energy>
    <i name="e_fr_energy">     -6.79987291 </i>
    <i name="e_wo_entrp">     -6.79987291 </i>
    <i name="e_0_energy">     -6.79987291 </i>
   </energy>
  </scstep>
  <scstep>
   <time name="diag">    0.01    0.01</time>
   <time name="diis">    0.02    0.02</time>
   <time name="orth">    0.00    0.00</time>
   <time name="total">    0.35    0.35</time>
   <energy>
    <i name="e_fr_energy">     -6.80069773 </i>
    <i name="e_wo_entrp">     -6.80069773 </i>
    <i name="e_0_energy">     -6.80069773 </i>
   </energy>
  </scstep>
  <scstep>
   <time name="diag">    0.01    0.01</time>
   <time name="diis">    0.02    0.02</time>
   <time name="orth">    0.00    0.00</time>
   <time name="total">    0.35    0.35</time>
   <energy>
    <i name="e_fr_energy">     -6.80103199 </i>
    <i name="e_wo_entrp">     -6.80103199 </i>
    <i name="e_0_energy">     -6.80103199 </i>
   </energy>
  </scstep>
  <scstep>
   <time name="diag">    0.01    0.01</time>
   <time name="diis">    0.02    0.02</time>
   <time name="orth">    0.00    0.00</time>
   <time name="total">    0.35    0.35</time>
   <energy>
    <i name="e_fr_energy">     -6.80113821 </i>
    <i name="e_wo_entrp">     -6.80113821 </i>
    <i name="e_0_energy">     -6.80113821 </i>
   </energy>
  </scstep>
  <scstep>
   <time name="diag">    0.01    0.01</time>
   <time name="diis">    0.02    0.02</time>
   <time name="orth">    0.00    0.00</time>
   <time name="total">    0.33    0.33</time>
   <energy>
    <i name="alphaZ">      3.08284289 </i>
    <i name="ewald">    -19.52380061 </i>
    <i name="hartreedc">   -710.55677431 </i>
    <i name="XCdc">     56.13524087 </i>
    <i name="pawpsdc">    808.13404250 </i>
    <i name="pawaedc">   -816.15862625 </i>
    <i name="eentropy">      0.00000000 </i>
    <i name="bandstr">   -193.90013505 </i>
    <i name="atom">    865.98604296 </i>
    <i name="e_fr_energy">     -6.80116701 </i>
    <i name="e_wo_entrp">     -6.80116701 </i>
    <i name="e_0_energy">     -6.80116701 </i>
   </energy>
  </scstep>
  <structure>
   <crystal>
    <varray name="basis" >
     <v>       6.00000000       0.00000000       0.00000000 </v>
     <v>       0.00000000       6.00000000       0.00000000 </v>
     <v>       0.00000000       0.00000000       6.00000000 </v>
    </varray>
    <i name="volume">    216.00000000 </i>
    <varray name="rec_basis" >
     <v>       0.16666667       0.00000000       0.00000000 </v>
     <v>       0.00000000       0.16666667       0.00000000 </v>
     <v>       0.00000000       0.00000000       0.16666667 </v>
    </varray>
   </crystal>
   <varray name="positions" >
    <v>       0.40692990       0.50000000       0.50000000 </v>
    <v>       0.59307010       0.50000000       0.50000000 </v>
   </varray>
  </structure>
  <varray name="forces" >
   <v>     -28.17888148       0.00000000       0.00000000 </v>
   <v>      28.17888148       0.00000000       0.00000000 </v>
  </varray>
  <energy>
   <i name="e_fr_energy">     -6.80116701 </i>
   <i name="e_wo_entrp">     -6.80116701 </i>
   <i name="e_0_energy">      0.00000000 </i>
  </energy>
  <time name="totalsc">    4.93    4.96</time>
 </calculation>
 <calculation>
  <scstep>
   <time name="dav">    0.05    0.05</time>
   <time name="total">    0.37    0.38</time>
   <energy>
    <i name="alphaZ">      3.08284289 </i>
    <i name="ewald">   -163.00718363 </i>
    <i name="hartreedc">   -603.14293371 </i>
    <i name="XCdc">     54.65838440 </i>
    <i name="pawpsdc">    808.16908592 </i>
    <i name="pawaedc">   -816.19324124 </i>
    <i name="eentropy">      0.00000000 </i>
    <i name="bandstr">   -155.75723308 </i>
    <i name="atom">    865.98604296 </i>
    <i name="e_fr_energy">     -6.20423548 </i>
    <i name="e_wo_entrp">     -6.20423548 </i>
    <i name="e_0_energy">     -6.20423548 </i>
   </energy>
  </scstep>
  <scstep>
   <time name="diag">    0.01    0.01</time>
   <time name="diis">    0.02    0.02</time>
   <time name="orth">    0.00    0.00</time>
   <time name="total">    0.35    0.35</time>
   <energy>
    <i name="e_fr_energy">     -6.81568525 </i>
    <i name="e_wo_entrp">     -6.81568525 </i>
    <i name="e_0_energy">     -6.81568525 </i>
   </energy>
  </scstep>
  <scstep>
   <time name="diag">    0.01    0.01</time>
   <time name="diis">    0.02    0.02</time>
   <time name="orth">    0.00    0.00</time>
   <time name="total">    0.35    0.35</time>
   <energy>
    <i name="e_fr_energy">     -6.95950326 </i>
    <i name="e_wo_entrp">     -6.95950326 </i>
    <i name="e_0_energy">     -6.95950326 </i>
   </energy>
  </scstep>
  <scstep>
   <time name="diag">    0.01    0.01</time>
   <time name="diis">    0.02    0.02</time>
   <time name="orth">    0.00    0.00</time>
   <time name="total">    0.35    0.35</time>
   <energy>
    <i name="e_fr_energy">     -6.99034610 </i>
    <i name="e_wo_entrp">     -6.99034610 </i>
    <i name="e_0_energy">     -6.99034610 </i>
   </energy>
  </scstep>
  <scstep>
   <time name="diag">    0.01    0.01</time>
   <time name="diis">    0.02    0.02</time>
   <time name="orth">    0.00    0.00</time>
   <time name="total">    0.35    0.35</time>
   <energy>
    <i name="e_fr_energy">     -6.99577525 </i>
    <i name="e_wo_entrp">     -6.99577525 </i>
    <i name="e_0_energy">     -6.99577525 </i>
   </energy>
  </scstep>
  <scstep>
   <time name="diag">    0.01    0.01</time>
   <time name="diis">    0.03    0.03</time>
   <time name="orth">    0.00    0.00</time>
   <time name="total">    0.36    0.36</time>
   <energy>
    <i name="e_fr_energy">     -6.99722400 </i>
    <i name="e_wo_entrp">     -6.99722400 </i>
    <i name="e_0_energy">     -6.99722400 </i>
   </energy>
  </scstep>
  <scstep>
   <time name="diag">    0.01    0.01</time>
   <time name="diis">    0.02    0.02</time>
   <time name="orth">    0.00    0.00</time>
   <time name="total">    0.35    0.35</time>
   <energy>
    <i name="e_fr_energy">     -6.99749270 </i>
    <i name="e_wo_entrp">     -6.99749270 </i>
    <i name="e_0_energy">     -6.99749270 </i>
   </energy>
  </scstep>
  <scstep>
   <time name="diag">    0.01    0.01</time>
   <time name="diis">    0.02    0.02</time>
   <time name="orth">    0.00    0.00</time>
   <time name="total">    0.35    0.35</time>
   <energy>
    <i name="e_fr_energy">     -6.99814638 </i>
    <i name="e_wo_entrp">     -6.99814638 </i>
    <i name="e_0_energy">     -6.99814638 </i>
   </energy>
  </scstep>
  <scstep>
   <time name="diag">    0.01    0.01</time>
   <time name="diis">    0.02    0.02</time>
   <time name="orth">    0.00    0.00</time>
   <time name="total">    0.35    0.35</time>
   <energy>
    <i name="e_fr_energy">     -6.99879867 </i>
    <i name="e_wo_entrp">     -6.99879867 </i>
    <i name="e_0_energy">     -6.99879867 </i>
   </energy>
  </scstep>
  <scstep>
   <time name="diag">    0.01    0.01</time>
   <time name="diis">    0.02    0.02</time>
   <time name="orth">    0.00    0.00</time>
   <time name="total">    0.35    0.35</time>
   <energy>
    <i name="e_fr_energy">     -6.99908984 </i>
    <i name="e_wo_entrp">     -6.99908984 </i>
    <i name="e_0_energy">     -6.99908984 </i>
   </energy>
  </scstep>
  <scstep>
   <time name="diag">    0.01    0.01</time>
   <time name="diis">    0.02    0.02</time>
   <time name="orth">    0.00    0.00</time>
   <time name="total">    0.35    0.35</time>
   <energy>
    <i name="e_fr_energy">     -6.99919962 </i>
    <i name="e_wo_entrp">     -6.99919962 </i>
    <i name="e_0_energy">     -6.99919962 </i>
   </energy>
  </scstep>
  <scstep>
   <time name="diag">    0.01    0.01</time>
   <time name="diis">    0.02    0.02</time>
   <time name="orth">    0.00    0.00</time>
   <time name="total">    0.33    0.33</time>
   <energy>
    <i name="alphaZ">      3.08284289 </i>
    <i name="ewald">   -163.00718363 </i>
    <i name="hartreedc">   -585.41278929 </i>
    <i name="XCdc">     53.23098303 </i>
    <i name="pawpsdc">    628.29566804 </i>
    <i name="pawaedc">   -634.93739194 </i>
    <i name="eentropy">      0.00000000 </i>
    <i name="bandstr">   -174.23742354 </i>
    <i name="atom">    865.98604296 </i>
    <i name="e_fr_energy">     -6.99925149 </i>
    <i name="e_wo_entrp">     -6.99925149 </i>
    <i name="e_0_energy">     -6.99925149 </i>
   </energy>
  </scstep>
  <structure>
   <crystal>
    <varray name="basis" >
     <v>       6.00000000       0.00000000       0.00000000 </v>
     <v>       0.00000000       6.00000000       0.00000000 </v>
     <v>       0.00000000       0.00000000       6.00000000 </v>
    </varray>
    <i name="volume">    216.00000000 </i>
    <varray name="rec_basis" >
     <v>       0.16666667       0.00000000       0.00000000 </v>
     <v>       0.00000000       0.16666667       0.00000000 </v>
     <v>       0.00000000       0.00000000       0.16666667 </v>
    </varray>
   </crystal>
   <varray name="positions" >
    <v>       0.36143212       0.50000000       0.50000000 </v>
    <v>       0.63856788       0.50000000       0.50000000 </v>
   </varray>
  </structure>
  <varray name="forces" >
   <v>       7.63917449       0.00000000       0.00000000 </v>
   <v>      -7.63917449       0.00000000       0.00000000 </v>
  </varray>
  <energy>
   <i name="e_fr_energy">     -6.99925149 </i>
   <i name="e_wo_entrp">     -6.99925149 </i>
   <i name="e_0_energy">      0.00000000 </i>
  </energy>
  <time name="totalsc">    4.58    4.61</time>
 </calculation>
 <calculation>
  <scstep>
   <time name="dav">    0.05    0.05</time>
   <time name="total">    0.37    0.37</time>
   <energy>
    <i name="alphaZ">      3.08284289 </i>
    <i name="ewald">   -141.82156286 </i>
    <i name="hartreedc">   -603.72421192 </i>
    <i name="XCdc">     53.44757271 </i>
    <i name="pawpsdc">    628.28361004 </i>
    <i name="pawaedc">   -634.92537988 </i>
    <i name="eentropy">      0.00000000 </i>
    <i name="bandstr">   -178.14424548 </i>
    <i name="atom">    865.98604296 </i>
    <i name="e_fr_energy">     -7.81533155 </i>
    <i name="e_wo_entrp">     -7.81533155 </i>
    <i name="e_0_energy">     -7.81533155 </i>
   </energy>
  </scstep>
  <scstep>
   <time name="diag">    0.01    0.01</time>
   <time name="diis">    0.02    0.02</time>
   <time name="orth">    0.00    0.00</time>
   <time name="total">    0.36    0.36</time>
   <energy>
    <i name="e_fr_energy">     -7.85791660 </i>
    <i name="e_wo_entrp">     -7.85791660 </i>
    <i name="e_0_energy">     -7.85791660 </i>
   </energy>
  </scstep>
  <scstep>
   <time name="diag">    0.01    0.01</time>
   <time name="diis">    0.03    0.03</time>
   <time name="orth">    0.00    0.00</time>
   <time name="total">    0.35    0.36</time>
   <energy>
    <i name="e_fr_energy">     -7.87898063 </i>
    <i name="e_wo_entrp">     -7.87898063 </i>
    <i name="e_0_energy">     -7.87898063 </i>
   </energy>
  </scstep>
  <scstep>
   <time name="diag">    0.01    0.01</time>
   <time name="diis">    0.02    0.02</time>
   <time name="orth">    0.00    0.00</time>
   <time name="total">    0.35    0.36</time>
   <energy>
    <i name="e_fr_energy">     -7.88114432 </i>
    <i name="e_wo_entrp">     -7.88114432 </i>
    <i name="e_0_energy">     -7.88114432 </i>
   </energy>
  </scstep>
  <scstep>
   <time name="diag">    0.01    0.01</time>
   <time name="diis">    0.02    0.02</time>
   <time name="orth">    0.00    0.00</time>
   <time name="total">    0.35    0.35</time>
   <energy>
    <i name="e_fr_energy">     -7.88185793 </i>
    <i name="e_wo_entrp">     -7.88185793 </i>
    <i name="e_0_energy">     -7.88185793 </i>
   </energy>
  </scstep>
  <scstep>
   <time name="diag">    0.01    0.01</time>
   <time name="diis">    0.02    0.02</time>
   <time name="orth">    0.00    0.00</time>
   <time name="total">    0.35    0.35</time>
   <energy>
    <i name="e_fr_energy">     -7.88199046 </i>
    <i name="e_wo_entrp">     -7.88199046 </i>
    <i name="e_0_energy">     -7.88199046 </i>
   </energy>
  </scstep>
  <scstep>
   <time name="diag">    0.01    0.01</time>
   <time name="diis">    0.02    0.02</time>
   <time name="orth">    0.00    0.00</time>
   <time name="total">    0.35    0.35</time>
   <energy>
    <i name="e_fr_energy">     -7.88186880 </i>
    <i name="e_wo_entrp">     -7.88186880 </i>
    <i name="e_0_energy">     -7.88186880 </i>
   </energy>
  </scstep>
  <scstep>
   <time name="diag">    0.01    0.01</time>
   <time name="diis">    0.02    0.02</time>
   <time name="orth">    0.00    0.00</time>
   <time name="total">    0.33    0.33</time>
   <energy>
    <i name="alphaZ">      3.08284289 </i>
    <i name="ewald">   -141.82156286 </i>
    <i name="hartreedc">   -605.69945213 </i>
    <i name="XCdc">     53.60474276 </i>
    <i name="pawpsdc">    646.81330023 </i>
    <i name="pawaedc">   -653.45926561 </i>
    <i name="eentropy">      0.00000000 </i>
    <i name="bandstr">   -176.38859759 </i>
    <i name="atom">    865.98604296 </i>
    <i name="e_fr_energy">     -7.88194936 </i>
    <i name="e_wo_entrp">     -7.88194936 </i>
    <i name="e_0_energy">     -7.88194936 </i>
   </energy>
  </scstep>
  <structure>
   <crystal>
    <varray name="basis" >
     <v>       6.00000000       0.00000000       0.00000000 </v>
     <v>       0.00000000       6.00000000       0.00000000 </v>
     <v>       0.00000000       0.00000000       6.00000000 </v>
    </varray>
    <i name="volume">    216.00000000 </i>
    <varray name="rec_basis" >
     <v>       0.16666667       0.00000000       0.00000000 </v>
     <v>       0.00000000       0.16666667       0.00000000 </v>
     <v>       0.00000000       0.00000000       0.16666667 </v>
    </varray>
   </crystal>
   <varray name="positions" >
    <v>       0.37113576       0.50000000       0.50000000 </v>
    <v>       0.62886424       0.50000000       0.50000000 </v>
   </varray>
  </structure>
  <varray name="forces" >
   <v>       7.36428328       0.00000000       0.00000000 </v>
   <v>      -7.36428328       0.00000000       0.00000000 </v>
  </varray>
  <energy>
   <i name="e_fr_energy">     -7.88194936 </i>
   <i name="e_wo_entrp">     -7.88194936 </i>
   <i name="e_0_energy">      0.00000000 </i>
  </energy>
  <time name="totalsc">    3.18    3.20</time>
 </calculation>
 <calculation>
  <scstep>
   <time name="dav">    0.05    0.05</time>
   <time name="total">    0.37    0.37</time>
   <energy>
    <i name="alphaZ">      3.08284289 </i>
    <i name="ewald">    -91.40724923 </i>
    <i name="hartreedc">   -646.60969105 </i>
    <i name="XCdc">     54.21861424 </i>
    <i name="pawpsdc">    646.78322743 </i>
    <i name="pawaedc">   -653.43035049 </i>
    <i name="eentropy">      0.00000000 </i>
    <i name="bandstr">   -187.38291506 </i>
    <i name="atom">    865.98604296 </i>
    <i name="e_fr_energy">     -8.75947831 </i>
    <i name="e_wo_entrp">     -8.75947831 </i>
    <i name="e_0_energy">     -8.75947831 </i>
   </energy>
  </scstep>
  <scstep>
   <time name="diag">    0.01    0.01</time>
   <time name="diis">    0.02    0.02</time>
   <time name="orth">    0.00    0.00</time>
   <time name="total">    0.35    0.36</time>
   <energy>
    <i name="e_fr_energy">     -8.98100882 </i>
    <i name="e_wo_entrp">     -8.98100882 </i>
    <i name="e_0_energy">     -8.98100882 </i>
   </energy>
  </scstep>
  <scstep>
   <time name="diag">    0.01    0.01</time>
   <time name="diis">    0.02    0.02</time>
   <time name="orth">    0.00    0.00</time>
   <time name="total">    0.35    0.35</time>
   <energy>
    <i name="e_fr_energy">     -8.99965004 </i>
    <i name="e_wo_entrp">     -8.99965004 </i>
    <i name="e_0_energy">     -8.99965004 </i>
   </energy>
  </scstep>
  <scstep>
   <time name="diag">    0.01    0.01</time>
   <time name="diis">    0.02    0.02</time>
   <time name="orth">    0.00    0.00</time>
   <time name="total">    0.35    0.36</time>
   <energy>
    <i name="e_fr_energy">     -9.00632668 </i>
    <i name="e_wo_entrp">     -9.00632668 </i>
    <i name="e_0_energy">     -9.00632668 </i>
   </energy>
  </scstep>
  <scstep>
   <time name="diag">    0.01    0.01</time>
   <time name="diis">    0.02    0.02</time>
   <time name="orth">    0.00    0.00</time>
   <time name="total">    0.35    0.36</time>
   <energy>
    <i name="e_fr_energy">     -9.00719190 </i>
    <i name="e_wo_entrp">     -9.00719190 </i>
    <i name="e_0_energy">     -9.00719190 </i>
   </energy>
  </scstep>
  <scstep>
   <time name="diag">    0.01    0.01</time>
   <time name="diis">    0.02    0.02</time>
   <time name="orth">    0.00    0.00</time>
   <time name="total">    0.35    0.36</time>
   <energy>
    <i name="e_fr_energy">     -9.00807001 </i>
    <i name="e_wo_entrp">     -9.00807001 </i>
    <i name="e_0_energy">     -9.00807001 </i>
   </energy>
  </scstep>
  <scstep>
   <time name="diag">    0.01    0.01</time>
   <time name="diis">    0.02    0.02</time>
   <time name="orth">    0.00    0.00</time>
   <time name="total">    0.35    0.35</time>
   <energy>
    <i name="e_fr_energy">     -9.00821649 </i>
    <i name="e_wo_entrp">     -9.00821649 </i>
    <i name="e_0_energy">     -9.00821649 </i>
   </energy>
  </scstep>
  <scstep>
   <time name="diag">    0.01    0.01</time>
   <time name="diis">    0.02    0.02</time>
   <time name="orth">    0.00    0.00</time>
   <time name="total">    0.35    0.35</time>
   <energy>
    <i name="e_fr_energy">     -9.00876932 </i>
    <i name="e_wo_entrp">     -9.00876932 </i>
    <i name="e_0_energy">     -9.00876932 </i>
   </energy>
  </scstep>
  <scstep>
   <time name="diag">    0.01    0.01</time>
   <time name="diis">    0.02    0.02</time>
   <time name="orth">    0.00    0.00</time>
   <time name="total">    0.35    0.35</time>
   <energy>
    <i name="e_fr_energy">     -9.00915239 </i>
    <i name="e_wo_entrp">     -9.00915239 </i>
    <i name="e_0_energy">     -9.00915239 </i>
   </energy>
  </scstep>
  <scstep>
   <time name="diag">    0.01    0.01</time>
   <time name="diis">    0.02    0.02</time>
   <time name="orth">    0.00    0.00</time>
   <time name="total">    0.33    0.33</time>
   <energy>
    <i name="alphaZ">      3.08284289 </i>
    <i name="ewald">    -91.40724923 </i>
    <i name="hartreedc">   -651.73739725 </i>
    <i name="XCdc">     54.60785783 </i>
    <i name="pawpsdc">    707.74912512 </i>
    <i name="pawaedc">   -714.64681880 </i>
    <i name="eentropy">      0.00000000 </i>
    <i name="bandstr">   -182.64361415 </i>
    <i name="atom">    865.98604296 </i>
    <i name="e_fr_energy">     -9.00921063 </i>
    <i name="e_wo_entrp">     -9.00921063 </i>
    <i name="e_0_energy">     -9.00921063 </i>
   </energy>
  </scstep>
  <structure>
   <crystal>
    <varray name="basis" >
     <v>       6.00000000       0.00000000       0.00000000 </v>
     <v>       0.00000000       6.00000000       0.00000000 </v>
     <v>       0.00000000       0.00000000       6.00000000 </v>
    </varray>
    <i name="volume">    216.00000000 </i>
    <varray name="rec_basis" >
     <v>       0.16666667       0.00000000       0.00000000 </v>
     <v>       0.00000000       0.16666667       0.00000000 </v>
     <v>       0.00000000       0.00000000       0.16666667 </v>
    </varray>
   </crystal>
   <varray name="positions" >
    <v>       0.38903283       0.50000000       0.50000000 </v>
    <v>       0.61096717       0.50000000       0.50000000 </v>
   </varray>
  </structure>
  <varray name="forces" >
   <v>       1.23001434       0.00000000       0.00000000 </v>
   <v>      -1.23001434       0.00000000       0.00000000 </v>
  </varray>
  <energy>
   <i name="e_fr_energy">     -9.00921063 </i>
   <i name="e_wo_entrp">     -9.00921063 </i>
   <i name="e_0_energy">      0.00000000 </i>
  </energy>
  <time name="totalsc">    3.89    3.91</time>
 </calculation>
 <calculation>
  <scstep>
   <time name="dav">    0.05    0.05</time>
   <time name="total">    0.37    0.37</time>
   <energy>
    <i name="alphaZ">      3.08284289 </i>
    <i name="ewald">    -81.13373021 </i>
    <i name="hartreedc">   -659.48115010 </i>
    <i name="XCdc">     54.73605976 </i>
    <i name="pawpsdc">    707.76749704 </i>
    <i name="pawaedc">   -714.66464467 </i>
    <i name="eentropy">      0.00000000 </i>
    <i name="bandstr">   -185.29822641 </i>
    <i name="atom">    865.98604296 </i>
    <i name="e_fr_energy">     -9.00530874 </i>
    <i name="e_wo_entrp">     -9.00530874 </i>
    <i name="e_0_energy">     -9.00530874 </i>
   </energy>
  </scstep>
  <scstep>
   <time name="diag">    0.01    0.01</time>
   <time name="diis">    0.02    0.02</time>
   <time name="orth">    0.00    0.00</time>
   <time name="total">    0.35    0.36</time>
   <energy>
    <i name="e_fr_energy">     -9.00945082 </i>
    <i name="e_wo_entrp">     -9.00945082 </i>
    <i name="e_0_energy">     -9.00945082 </i>
   </energy>
  </scstep>
  <scstep>
   <time name="diag">    0.01    0.01</time>
   <time name="diis">    0.02    0.02</time>
   <time name="orth">    0.00    0.00</time>
   <time name="total">    0.35    0.36</time>
   <energy>
    <i name="e_fr_energy">     -9.00973305 </i>
    <i name="e_wo_entrp">     -9.00973305 </i>
    <i name="e_0_energy">     -9.00973305 </i>
   </energy>
  </scstep>
  <scstep>
   <time name="diag">    0.01    0.01</time>
   <time name="diis">    0.03    0.03</time>
   <time name="orth">    0.00    0.00</time>
   <time name="total">    0.34    0.34</time>
   <energy>
    <i name="alphaZ">      3.08284289 </i>
    <i name="ewald">    -81.13373021 </i>
    <i name="hartreedc">   -660.72077120 </i>
    <i name="XCdc">     54.82581666 </i>
    <i name="pawpsdc">    719.85863401 </i>
    <i name="pawaedc">   -726.86296322 </i>
    <i name="eentropy">      0.00000000 </i>
    <i name="bandstr">   -184.04558730 </i>
    <i name="atom">    865.98604296 </i>
    <i name="e_fr_energy">     -9.00971542 </i>
    <i name="e_wo_entrp">     -9.00971542 </i>
    <i name="e_0_energy">     -9.00971542 </i>
   </energy>
  </scstep>
  <structure>
   <crystal>
    <varray name="basis" >
     <v>       6.00000000       0.00000000       0.00000000 </v>
     <v>       0.00000000       6.00000000       0.00000000 </v>
     <v>       0.00000000       0.00000000       6.00000000 </v>
    </varray>
    <i name="volume">    216.00000000 </i>
    <varray name="rec_basis" >
     <v>       0.16666667       0.00000000       0.00000000 </v>
     <v>       0.00000000       0.16666667       0.00000000 </v>
     <v>       0.00000000       0.00000000       0.16666667 </v>
    </varray>
   </crystal>
   <varray name="positions" >
    <v>       0.39203302       0.50000000       0.50000000 </v>
    <v>       0.60796698       0.50000000       0.50000000 </v>
   </varray>
  </structure>
  <varray name="forces" >
   <v>      -1.30798925       0.00000000       0.00000000 </v>
   <v>       1.30798925       0.00000000       0.00000000 </v>
  </varray>
  <energy>
   <i name="e_fr_energy">     -9.00971542 </i>
   <i name="e_wo_entrp">     -9.00971542 </i>
   <i name="e_0_energy">      0.00000000 </i>
  </energy>
  <time name="totalsc">    1.78    1.79</time>
 </calculation>
 <calculation>
  <scstep>
   <time name="dav">    0.04    0.04</time>
   <time name="total">    0.37    0.37</time>
   <energy>
    <i name="alphaZ">      3.08284289 </i>
    <i name="ewald">    -86.50467195 </i>
    <i name="hartreedc">   -656.66873925 </i>
    <i name="XCdc">     54.75849848 </i>
    <i name="pawpsdc">    721.17488244 </i>
    <i name="pawaedc">   -728.17781068 </i>
    <i name="eentropy">      0.00000000 </i>
    <i name="bandstr">   -182.67081236 </i>
    <i name="atom">    865.98604296 </i>
    <i name="e_fr_energy">     -9.01976747 </i>
    <i name="e_wo_entrp">     -9.01976747 </i>
    <i name="e_0_energy">     -9.01976747 </i>
   </energy>
  </scstep>
  <scstep>
   <time name="diag">    0.01    0.01</time>
   <time name="diis">    0.02    0.02</time>
   <time name="orth">    0.00    0.00</time>
   <time name="total">    0.35    0.36</time>
   <energy>
    <i name="e_fr_energy">     -9.02121862 </i>
    <i name="e_wo_entrp">     -9.02121862 </i>
    <i name="e_0_energy">     -9.02121862 </i>
   </energy>
  </scstep>
  <scstep>
   <time name="diag">    0.01    0.01</time>
   <time name="diis">    0.02    0.02</time>
   <time name="orth">    0.00    0.00</time>
   <time name="total">    0.35    0.36</time>
   <energy>
    <i name="e_fr_energy">     -9.02081805 </i>
    <i name="e_wo_entrp">     -9.02081805 </i>
    <i name="e_0_energy">     -9.02081805 </i>
   </energy>
  </scstep>
  <scstep>
   <time name="diag">    0.01    0.01</time>
   <time name="diis">    0.02    0.02</time>
   <time name="orth">    0.00    0.00</time>
   <time name="total">    0.33    0.33</time>
   <energy>
    <i name="alphaZ">      3.08284289 </i>
    <i name="ewald">    -86.50467195 </i>
    <i name="hartreedc">   -655.99127282 </i>
    <i name="XCdc">     54.70984267 </i>
    <i name="pawpsdc">    715.66949873 </i>
    <i name="pawaedc">   -722.61405244 </i>
    <i name="eentropy">      0.00000000 </i>
    <i name="bandstr">   -183.35913936 </i>
    <i name="atom">    865.98604296 </i>
    <i name="e_fr_energy">     -9.02090932 </i>
    <i name="e_wo_entrp">     -9.02090932 </i>
    <i name="e_0_energy">     -9.02090932 </i>
   </energy>
  </scstep>
  <structure>
   <crystal>
    <varray name="basis" >
     <v>       6.00000000       0.00000000       0.00000000 </v>
     <v>       0.00000000       6.00000000       0.00000000 </v>
     <v>       0.00000000       0.00000000       6.00000000 </v>
    </varray>
    <i name="volume">    216.00000000 </i>
    <varray name="rec_basis" >
     <v>       0.16666667       0.00000000       0.00000000 </v>
     <v>       0.00000000       0.16666667       0.00000000 </v>
     <v>       0.00000000       0.00000000       0.16666667 </v>
    </varray>
   </crystal>
   <varray name="positions" >
    <v>       0.39048684       0.50000000       0.50000000 </v>
    <v>       0.60951316       0.50000000       0.50000000 </v>
   </varray>
  </structure>
  <varray name="forces" >
   <v>       0.07869923       0.00000000       0.00000000 </v>
   <v>      -0.07869923       0.00000000       0.00000000 </v>
  </varray>
  <energy>
   <i name="e_fr_energy">     -9.02090932 </i>
   <i name="e_wo_entrp">     -9.02090932 </i>
   <i name="e_0_energy">      0.00000000 </i>
  </energy>
  <time name="totalsc">    1.77    1.78</time>
 </calculation>
 <calculation>
  <scstep>
   <time name="dav">    0.04    0.04</time>
   <time name="total">    0.36    0.37</time>
   <energy>
    <i name="alphaZ">      3.08284289 </i>
    <i name="ewald">    -86.18370504 </i>
    <i name="hartreedc">   -656.24269375 </i>
    <i name="XCdc">     54.71383472 </i>
    <i name="pawpsdc">    714.98849472 </i>
    <i name="pawaedc">   -721.93264812 </i>
    <i name="eentropy">      0.00000000 </i>
    <i name="bandstr">   -183.43314204 </i>
    <i name="atom">    865.98604296 </i>
    <i name="e_fr_energy">     -9.02097367 </i>
    <i name="e_wo_entrp">     -9.02097367 </i>
    <i name="e_0_energy">     -9.02097367 </i>
   </energy>
  </scstep>
  <scstep>
   <time name="diag">    0.01    0.01</time>
   <time name="diis">    0.02    0.02</time>
   <time name="orth">    0.00    0.00</time>
   <time name="total">    0.33    0.33</time>
   <energy>
    <i name="alphaZ">      3.08284289 </i>
    <i name="ewald">    -86.18370504 </i>
    <i name="hartreedc">   -656.27817274 </i>
    <i name="XCdc">     54.71628294 </i>
    <i name="pawpsdc">    715.01838834 </i>
    <i name="pawaedc">   -721.96512528 </i>
    <i name="eentropy">      0.00000000 </i>
    <i name="bandstr">   -183.39751758 </i>
    <i name="atom">    865.98604296 </i>
    <i name="e_fr_energy">     -9.02096351 </i>
    <i name="e_wo_entrp">     -9.02096351 </i>
    <i name="e_0_energy">     -9.02096351 </i>
   </energy>
  </scstep>
  <structure>
   <crystal>
    <varray name="basis" >
     <v>       6.00000000       0.00000000       0.00000000 </v>
     <v>       0.00000000       6.00000000       0.00000000 </v>
     <v>       0.00000000       0.00000000       6.00000000 </v>
    </varray>
    <i name="volume">    216.00000000 </i>
    <varray name="rec_basis" >
     <v>       0.16666667       0.00000000       0.00000000 </v>
     <v>       0.00000000       0.16666667       0.00000000 </v>
     <v>       0.00000000       0.00000000       0.16666667 </v>
    </varray>
   </crystal>
   <varray name="positions" >
    <v>       0.39058059       0.50000000       0.50000000 </v>
    <v>       0.60941941       0.50000000       0.50000000 </v>
   </varray>
  </structure>
  <varray name="forces" >
   <v>      -0.00117016       0.00000000       0.00000000 </v>
   <v>       0.00117016       0.00000000       0.00000000 </v>
  </varray>
  <energy>
   <i name="e_fr_energy">     -9.02096351 </i>
   <i name="e_wo_entrp">     -9.02096351 </i>
   <i name="e_0_energy">      0.00000000 </i>
  </energy>
  <time name="totalsc">    1.05    1.06</time>
  <eigenvalues>
   <array>
    <dimension dim="1">band</dimension>
    <dimension dim="2">kpoint</dimension>
    <dimension dim="3">spin</dimension>
    <field>eigene</field>
    <field>occ</field>
    <set>
     <set comment="spin 1">
      <set comment="kpoint 1">
       <r>  -30.6974    1.0000 </r>
       <r>  -20.6873    1.0000 </r>
       <r>  -12.6744    1.0000 </r>
       <r>  -12.1695    1.0000 </r>
       <r>  -12.1695    1.0000 </r>
       <r>   -7.0291    1.0000 </r>
       <r>   -7.0291    1.0000 </r>
       <r>   -0.5026    0.0000 </r>
       <r>    0.3943    0.0000 </r>
       <r>    2.9528    0.0000 </r>
       <r>    3.2624    0.0000 </r>
       <r>    3.2813    0.0000 </r>
      </set>
     </set>
     <set comment="spin 2">
      <set comment="kpoint 1">
       <r>  -29.3983    1.0000 </r>
       <r>  -18.9757    1.0000 </r>
       <r>  -11.7034    1.0000 </r>
       <r>  -10.4319    1.0000 </r>
       <r>  -10.4319    1.0000 </r>
       <r>   -4.9400    0.0000 </r>
       <r>   -4.9400    0.0000 </r>
       <r>   -0.3967    0.0000 </r>
       <r>    1.4808    0.0000 </r>
       <r>    2.9861    0.0000 </r>
       <r>    3.3152    0.0000 </r>
       <r>    3.4417    0.0000 </r>
      </set>
     </set>
    </set>
   </array>
  </eigenvalues>
  <separator name="orbital magnetization" >
   <v name="MAGDIPOLOUT">      0.00000000      0.00000000      0.00000000</v>
  </separator>
  <dos>
   <i name="efermi">     -6.72752184 </i>
   <total>
    <array>
     <dimension dim="1">gridpoints</dimension>
     <dimension dim="2">spin</dimension>
     <field>energy</field>
     <field>total</field>
     <field>integrated</field>
     <set>
      <set comment="spin 1">
       <r>   -32.4044     0.0000     0.0000 </r>
       <r>   -32.2792     0.0000     0.0000 </r>
       <r>   -32.1540     0.0000     0.0000 </r>
       <r>   -32.0289     0.0000     0.0000 </r>
       <r>   -31.9037     0.0000     0.0000 </r>
       <r>   -31.7785     0.0000     0.0000 </r>
       <r>   -31.6533     0.0000     0.0000 </r>
       <r>   -31.5282     0.0000     0.0000 </r>
       <r>   -31.4030     0.0000     0.0000 </r>
       <r>   -31.2778     0.0000     0.0000 </r>
       <r>   -31.1526     0.0000     0.0000 </r>
       <r>   -31.0275     0.0000     0.0000 </r>
       <r>   -30.9023     0.0000     0.0000 </r>
       <r>   -30.7771     0.0969     0.0121 </r>
       <r>   -30.6519     7.1012     0.9010 </r>
       <r>   -30.5267     0.7906     1.0000 </r>
       <r>   -30.4016     0.0000     1.0000 </r>
       <r>   -30.2764     0.0000     1.0000 </r>
       <r>   -30.1512     0.0000     1.0000 </r>
       <r>   -30.0260     0.0000     1.0000 </r>
       <r>   -29.9009     0.0000     1.0000 </r>
       <r>   -29.7757     0.0000     1.0000 </r>
       <r>   -29.6505     0.0000     1.0000 </r>
       <r>   -29.5253     0.0000     1.0000 </r>
       <r>   -29.4002     0.0000     1.0000 </r>
       <r>   -29.2750     0.0000     1.0000 </r>
       <r>   -29.1498     0.0000     1.0000 </r>
       <r>   -29.0246     0.0000     1.0000 </r>
       <r>   -28.8994     0.0000     1.0000 </r>
       <r>   -28.7743     0.0000     1.0000 </r>
       <r>   -28.6491     0.0000     1.0000 </r>
       <r>   -28.5239     0.0000     1.0000 </r>
       <r>   -28.3987     0.0000     1.0000 </r>
       <r>   -28.2736     0.0000     1.0000 </r>
       <r>   -28.1484     0.0000     1.0000 </r>
       <r>   -28.0232     0.0000     1.0000 </r>
       <r>   -27.8980     0.0000     1.0000 </r>
       <r>   -27.7729     0.0000     1.0000 </r>
       <r>   -27.6477     0.0000     1.0000 </r>
       <r>   -27.5225     0.0000     1.0000 </r>
       <r>   -27.3973     0.0000     1.0000 </r>
       <r>   -27.2722     0.0000     1.0000 </r>
       <r>   -27.1470     0.0000     1.0000 </r>
       <r>   -27.0218     0.0000     1.0000 </r>
       <r>   -26.8966     0.0000     1.0000 </r>
       <r>   -26.7714     0.0000     1.0000 </r>
       <r>   -26.6463     0.0000     1.0000 </r>
       <r>   -26.5211     0.0000     1.0000 </r>
       <r>   -26.3959     0.0000     1.0000 </r>
       <r>   -26.2707     0.0000     1.0000 </r>
       <r>   -26.1456     0.0000     1.0000 </r>
       <r>   -26.0204     0.0000     1.0000 </r>
       <r>   -25.8952     0.0000     1.0000 </r>
       <r>   -25.7700     0.0000     1.0000 </r>
       <r>   -25.6449     0.0000     1.0000 </r>
       <r>   -25.5197     0.0000     1.0000 </r>
       <r>   -25.3945     0.0000     1.0000 </r>
       <r>   -25.2693     0.0000     1.0000 </r>
       <r>   -25.1441     0.0000     1.0000 </r>
       <r>   -25.0190     0.0000     1.0000 </r>
       <r>   -24.8938     0.0000     1.0000 </r>
       <r>   -24.7686     0.0000     1.0000 </r>
       <r>   -24.6434     0.0000     1.0000 </r>
       <r>   -24.5183     0.0000     1.0000 </r>
       <r>   -24.3931     0.0000     1.0000 </r>
       <r>   -24.2679     0.0000     1.0000 </r>
       <r>   -24.1427     0.0000     1.0000 </r>
       <r>   -24.0176     0.0000     1.0000 </r>
       <r>   -23.8924     0.0000     1.0000 </r>
       <r>   -23.7672     0.0000     1.0000 </r>
       <r>   -23.6420     0.0000     1.0000 </r>
       <r>   -23.5168     0.0000     1.0000 </r>
       <r>   -23.3917     0.0000     1.0000 </r>
       <r>   -23.2665     0.0000     1.0000 </r>
       <r>   -23.1413     0.0000     1.0000 </r>
       <r>   -23.0161     0.0000     1.0000 </r>
       <r>   -22.8910     0.0000     1.0000 </r>
       <r>   -22.7658     0.0000     1.0000 </r>
       <r>   -22.6406     0.0000     1.0000 </r>
       <r>   -22.5154     0.0000     1.0000 </r>
       <r>   -22.3903     0.0000     1.0000 </r>
       <r>   -22.2651     0.0000     1.0000 </r>
       <r>   -22.1399     0.0000     1.0000 </r>
       <r>   -22.0147     0.0000     1.0000 </r>
       <r>   -21.8896     0.0000     1.0000 </r>
       <r>   -21.7644     0.0000     1.0000 </r>
       <r>   -21.6392     0.0000     1.0000 </r>
       <r>   -21.5140     0.0000     1.0000 </r>
       <r>   -21.3888     0.0000     1.0000 </r>
       <r>   -21.2637     0.0000     1.0000 </r>
       <r>   -21.1385     0.0000     1.0000 </r>
       <r>   -21.0133     0.0000     1.0000 </r>
       <r>   -20.8881     0.0000     1.0000 </r>
       <r>   -20.7630     0.1288     1.0161 </r>
       <r>   -20.6378     7.2138     1.9191 </r>
       <r>   -20.5126     0.6460     2.0000 </r>
       <r>   -20.3874     0.0000     2.0000 </r>
       <r>   -20.2623     0.0000     2.0000 </r>
       <r>   -20.1371     0.0000     2.0000 </r>
       <r>   -20.0119     0.0000     2.0000 </r>
       <r>   -19.8867     0.0000     2.0000 </r>
       <r>   -19.7615     0.0000     2.0000 </r>
       <r>   -19.6364     0.0000     2.0000 </r>
       <r>   -19.5112     0.0000     2.0000 </r>
       <r>   -19.3860     0.0000     2.0000 </r>
       <r>   -19.2608     0.0000     2.0000 </r>
       <r>   -19.1357     0.0000     2.0000 </r>
       <r>   -19.0105     0.0000     2.0000 </r>
       <r>   -18.8853     0.0000     2.0000 </r>
       <r>   -18.7601     0.0000     2.0000 </r>
       <r>   -18.6350     0.0000     2.0000 </r>
       <r>   -18.5098     0.0000     2.0000 </r>
       <r>   -18.3846     0.0000     2.0000 </r>
       <r>   -18.2594     0.0000     2.0000 </r>
       <r>   -18.1342     0.0000     2.0000 </r>
       <r>   -18.0091     0.0000     2.0000 </r>
       <r>   -17.8839     0.0000     2.0000 </r>
       <r>   -17.7587     0.0000     2.0000 </r>
       <r>   -17.6335     0.0000     2.0000 </r>
       <r>   -17.5084     0.0000     2.0000 </r>
       <r>   -17.3832     0.0000     2.0000 </r>
       <r>   -17.2580     0.0000     2.0000 </r>
       <r>   -17.1328     0.0000     2.0000 </r>
       <r>   -17.0077     0.0000     2.0000 </r>
       <r>   -16.8825     0.0000     2.0000 </r>
       <r>   -16.7573     0.0000     2.0000 </r>
       <r>   -16.6321     0.0000     2.0000 </r>
       <r>   -16.5070     0.0000     2.0000 </r>
       <r>   -16.3818     0.0000     2.0000 </r>
       <r>   -16.2566     0.0000     2.0000 </r>
       <r>   -16.1314     0.0000     2.0000 </r>
       <r>   -16.0062     0.0000     2.0000 </r>
       <r>   -15.8811     0.0000     2.0000 </r>
       <r>   -15.7559     0.0000     2.0000 </r>
       <r>   -15.6307     0.0000     2.0000 </r>
       <r>   -15.5055     0.0000     2.0000 </r>
       <r>   -15.3804     0.0000     2.0000 </r>
       <r>   -15.2552     0.0000     2.0000 </r>
       <r>   -15.1300     0.0000     2.0000 </r>
       <r>   -15.0048     0.0000     2.0000 </r>
       <r>   -14.8797     0.0000     2.0000 </r>
       <r>   -14.7545     0.0000     2.0000 </r>
       <r>   -14.6293     0.0000     2.0000 </r>
       <r>   -14.5041     0.0000     2.0000 </r>
       <r>   -14.3789     0.0000     2.0000 </r>
       <r>   -14.2538     0.0000     2.0000 </r>
       <r>   -14.1286     0.0000     2.0000 </r>
       <r>   -14.0034     0.0000     2.0000 </r>
       <r>   -13.8782     0.0000     2.0000 </r>
       <r>   -13.7531     0.0000     2.0000 </r>
       <r>   -13.6279     0.0000     2.0000 </r>
       <r>   -13.5027     0.0000     2.0000 </r>
       <r>   -13.3775     0.0000     2.0000 </r>
       <r>   -13.2524     0.0000     2.0000 </r>
       <r>   -13.1272     0.0000     2.0000 </r>
       <r>   -13.0020     0.0000     2.0000 </r>
       <r>   -12.8768     0.0000     2.0000 </r>
       <r>   -12.7517     0.1151     2.0144 </r>
       <r>   -12.6265     7.1725     2.9122 </r>
       <r>   -12.5013     0.7011     3.0000 </r>
       <r>   -12.3761     0.0000     3.0000 </r>
       <r>   -12.2509     0.1692     3.0212 </r>
       <r>   -12.1258    14.0782     4.7834 </r>
       <r>   -12.0006     1.7300     5.0000 </r>
       <r>   -11.8754     0.0000     5.0000 </r>
       <r>   -11.7502     0.0000     5.0000 </r>
       <r>   -11.6251     0.0000     5.0000 </r>
       <r>   -11.4999     0.0000     5.0000 </r>
       <r>   -11.3747     0.0000     5.0000 </r>
       <r>   -11.2495     0.0000     5.0000 </r>
       <r>   -11.1244     0.0000     5.0000 </r>
       <r>   -10.9992     0.0000     5.0000 </r>
       <r>   -10.8740     0.0000     5.0000 </r>
       <r>   -10.7488     0.0000     5.0000 </r>
       <r>   -10.6236     0.0000     5.0000 </r>
       <r>   -10.4985     0.0000     5.0000 </r>
       <r>   -10.3733     0.0000     5.0000 </r>
       <r>   -10.2481     0.0000     5.0000 </r>
       <r>   -10.1229     0.0000     5.0000 </r>
       <r>    -9.9978     0.0000     5.0000 </r>
       <r>    -9.8726     0.0000     5.0000 </r>
       <r>    -9.7474     0.0000     5.0000 </r>
       <r>    -9.6222     0.0000     5.0000 </r>
       <r>    -9.4971     0.0000     5.0000 </r>
       <r>    -9.3719     0.0000     5.0000 </r>
       <r>    -9.2467     0.0000     5.0000 </r>
       <r>    -9.1215     0.0000     5.0000 </r>
       <r>    -8.9963     0.0000     5.0000 </r>
       <r>    -8.8712     0.0000     5.0000 </r>
       <r>    -8.7460     0.0000     5.0000 </r>
       <r>    -8.6208     0.0000     5.0000 </r>
       <r>    -8.4956     0.0000     5.0000 </r>
       <r>    -8.3705     0.0000     5.0000 </r>
       <r>    -8.2453     0.0000     5.0000 </r>
       <r>    -8.1201     0.0000     5.0000 </r>
       <r>    -7.9949     0.0000     5.0000 </r>
       <r>    -7.8698     0.0000     5.0000 </r>
       <r>    -7.7446     0.0000     5.0000 </r>
       <r>    -7.6194     0.0000     5.0000 </r>
       <r>    -7.4942     0.0000     5.0000 </r>
       <r>    -7.3691     0.0000     5.0000 </r>
       <r>    -7.2439     0.0000     5.0000 </r>
       <r>    -7.1187     0.0903     5.0113 </r>
       <r>    -6.9935    13.3801     6.6862 </r>
       <r>    -6.8683     2.5070     7.0000 </r>
       <r>    -6.7432     0.0000     7.0000 </r>
       <r>    -6.6180     0.0000     7.0000 </r>
       <r>    -6.4928     0.0000     7.0000 </r>
       <r>    -6.3676     0.0000     7.0000 </r>
       <r>    -6.2425     0.0000     7.0000 </r>
       <r>    -6.1173     0.0000     7.0000 </r>
       <r>    -5.9921     0.0000     7.0000 </r>
       <r>    -5.8669     0.0000     7.0000 </r>
       <r>    -5.7418     0.0000     7.0000 </r>
       <r>    -5.6166     0.0000     7.0000 </r>
       <r>    -5.4914     0.0000     7.0000 </r>
       <r>    -5.3662     0.0000     7.0000 </r>
       <r>    -5.2410     0.0000     7.0000 </r>
       <r>    -5.1159     0.0000     7.0000 </r>
       <r>    -4.9907     0.0000     7.0000 </r>
       <r>    -4.8655     0.0000     7.0000 </r>
       <r>    -4.7403     0.0000     7.0000 </r>
       <r>    -4.6152     0.0000     7.0000 </r>
       <r>    -4.4900     0.0000     7.0000 </r>
       <r>    -4.3648     0.0000     7.0000 </r>
       <r>    -4.2396     0.0000     7.0000 </r>
       <r>    -4.1145     0.0000     7.0000 </r>
       <r>    -3.9893     0.0000     7.0000 </r>
       <r>    -3.8641     0.0000     7.0000 </r>
       <r>    -3.7389     0.0000     7.0000 </r>
       <r>    -3.6138     0.0000     7.0000 </r>
       <r>    -3.4886     0.0000     7.0000 </r>
       <r>    -3.3634     0.0000     7.0000 </r>
       <r>    -3.2382     0.0000     7.0000 </r>
       <r>    -3.1130     0.0000     7.0000 </r>
       <r>    -2.9879     0.0000     7.0000 </r>
       <r>    -2.8627     0.0000     7.0000 </r>
       <r>    -2.7375     0.0000     7.0000 </r>
       <r>    -2.6123     0.0000     7.0000 </r>
       <r>    -2.4872     0.0000     7.0000 </r>
       <r>    -2.3620     0.0000     7.0000 </r>
       <r>    -2.2368     0.0000     7.0000 </r>
       <r>    -2.1116     0.0000     7.0000 </r>
       <r>    -1.9865     0.0000     7.0000 </r>
       <r>    -1.8613     0.0000     7.0000 </r>
       <r>    -1.7361     0.0000     7.0000 </r>
       <r>    -1.6109     0.0000     7.0000 </r>
       <r>    -1.4857     0.0000     7.0000 </r>
       <r>    -1.3606     0.0000     7.0000 </r>
       <r>    -1.2354     0.0000     7.0000 </r>
       <r>    -1.1102     0.0000     7.0000 </r>
       <r>    -0.9850     0.0000     7.0000 </r>
       <r>    -0.8599     0.0000     7.0000 </r>
       <r>    -0.7347     0.0000     7.0000 </r>
       <r>    -0.6095     0.0099     7.0012 </r>
       <r>    -0.4843     5.5577     7.6969 </r>
       <r>    -0.3592     2.4208     8.0000 </r>
       <r>    -0.2340     0.0002     8.0000 </r>
       <r>    -0.1088     0.0000     8.0000 </r>
       <r>     0.0164     0.0000     8.0000 </r>
       <r>     0.1416     0.0000     8.0000 </r>
       <r>     0.2667     0.0012     8.0002 </r>
       <r>     0.3919     3.7745     8.4726 </r>
       <r>     0.5171     4.2109     8.9997 </r>
       <r>     0.6423     0.0021     9.0000 </r>
       <r>     0.7674     0.0000     9.0000 </r>
       <r>     0.8926     0.0000     9.0000 </r>
       <r>     1.0178     0.0000     9.0000 </r>
       <r>     1.1430     0.0000     9.0000 </r>
       <r>     1.2681     0.0000     9.0000 </r>
       <r>     1.3933     0.0000     9.0000 </r>
       <r>     1.5185     0.0000     9.0000 </r>
       <r>     1.6437     0.0000     9.0000 </r>
       <r>     1.7688     0.0000     9.0000 </r>
       <r>     1.8940     0.0000     9.0000 </r>
       <r>     2.0192     0.0000     9.0000 </r>
       <r>     2.1444     0.0000     9.0000 </r>
       <r>     2.2696     0.0000     9.0000 </r>
       <r>     2.3947     0.0000     9.0000 </r>
       <r>     2.5199     0.0000     9.0000 </r>
       <r>     2.6451     0.0000     9.0000 </r>
       <r>     2.7703     0.0000     9.0000 </r>
       <r>     2.8954     0.4184     9.0524 </r>
       <r>     3.0206     7.3503     9.9725 </r>
       <r>     3.1458     0.2244    10.0005 </r>
       <r>     3.2710     7.8291    10.9806 </r>
       <r>     3.3961     8.1387    11.9993 </r>
       <r>     3.5213     0.0053    12.0000 </r>
       <r>     3.6465     0.0000    12.0000 </r>
       <r>     3.7717     0.0000    12.0000 </r>
       <r>     3.8969     0.0000    12.0000 </r>
       <r>     4.0220     0.0000    12.0000 </r>
       <r>     4.1472     0.0000    12.0000 </r>
       <r>     4.2724     0.0000    12.0000 </r>
       <r>     4.3976     0.0000    12.0000 </r>
       <r>     4.5227     0.0000    12.0000 </r>
       <r>     4.6479     0.0000    12.0000 </r>
       <r>     4.7731     0.0000    12.0000 </r>
       <r>     4.8983     0.0000    12.0000 </r>
       <r>     5.0234     0.0000    12.0000 </r>
       <r>     5.1486     0.0000    12.0000 </r>
      </set>
      <set comment="spin 2">
       <r>   -32.4044     0.0000     0.0000 </r>
       <r>   -32.2792     0.0000     0.0000 </r>
       <r>   -32.1540     0.0000     0.0000 </r>
       <r>   -32.0289     0.0000     0.0000 </r>
       <r>   -31.9037     0.0000     0.0000 </r>
       <r>   -31.7785     0.0000     0.0000 </r>
       <r>   -31.6533     0.0000     0.0000 </r>
       <r>   -31.5282     0.0000     0.0000 </r>
       <r>   -31.4030     0.0000     0.0000 </r>
       <r>   -31.2778     0.0000     0.0000 </r>
       <r>   -31.1526     0.0000     0.0000 </r>
       <r>   -31.0275     0.0000     0.0000 </r>
       <r>   -30.9023     0.0000     0.0000 </r>
       <r>   -30.7771     0.0000     0.0000 </r>
       <r>   -30.6519     0.0000     0.0000 </r>
       <r>   -30.5267     0.0000     0.0000 </r>
       <r>   -30.4016     0.0000     0.0000 </r>
       <r>   -30.2764     0.0000     0.0000 </r>
       <r>   -30.1512     0.0000     0.0000 </r>
       <r>   -30.0260     0.0000     0.0000 </r>
       <r>   -29.9009     0.0000     0.0000 </r>
       <r>   -29.7757     0.0000     0.0000 </r>
       <r>   -29.6505     0.0000     0.0000 </r>
       <r>   -29.5253     0.0013     0.0002 </r>
       <r>   -29.4002     3.8246     0.4789 </r>
       <r>   -29.2750     4.1609     0.9998 </r>
       <r>   -29.1498     0.0019     1.0000 </r>
       <r>   -29.0246     0.0000     1.0000 </r>
       <r>   -28.8994     0.0000     1.0000 </r>
       <r>   -28.7743     0.0000     1.0000 </r>
       <r>   -28.6491     0.0000     1.0000 </r>
       <r>   -28.5239     0.0000     1.0000 </r>
       <r>   -28.3987     0.0000     1.0000 </r>
       <r>   -28.2736     0.0000     1.0000 </r>
       <r>   -28.1484     0.0000     1.0000 </r>
       <r>   -28.0232     0.0000     1.0000 </r>
       <r>   -27.8980     0.0000     1.0000 </r>
       <r>   -27.7729     0.0000     1.0000 </r>
       <r>   -27.6477     0.0000     1.0000 </r>
       <r>   -27.5225     0.0000     1.0000 </r>
       <r>   -27.3973     0.0000     1.0000 </r>
       <r>   -27.2722     0.0000     1.0000 </r>
       <r>   -27.1470     0.0000     1.0000 </r>
       <r>   -27.0218     0.0000     1.0000 </r>
       <r>   -26.8966     0.0000     1.0000 </r>
       <r>   -26.7714     0.0000     1.0000 </r>
       <r>   -26.6463     0.0000     1.0000 </r>
       <r>   -26.5211     0.0000     1.0000 </r>
       <r>   -26.3959     0.0000     1.0000 </r>
       <r>   -26.2707     0.0000     1.0000 </r>
       <r>   -26.1456     0.0000     1.0000 </r>
       <r>   -26.0204     0.0000     1.0000 </r>
       <r>   -25.8952     0.0000     1.0000 </r>
       <r>   -25.7700     0.0000     1.0000 </r>
       <r>   -25.6449     0.0000     1.0000 </r>
       <r>   -25.5197     0.0000     1.0000 </r>
       <r>   -25.3945     0.0000     1.0000 </r>
       <r>   -25.2693     0.0000     1.0000 </r>
       <r>   -25.1441     0.0000     1.0000 </r>
       <r>   -25.0190     0.0000     1.0000 </r>
       <r>   -24.8938     0.0000     1.0000 </r>
       <r>   -24.7686     0.0000     1.0000 </r>
       <r>   -24.6434     0.0000     1.0000 </r>
       <r>   -24.5183     0.0000     1.0000 </r>
       <r>   -24.3931     0.0000     1.0000 </r>
       <r>   -24.2679     0.0000     1.0000 </r>
       <r>   -24.1427     0.0000     1.0000 </r>
       <r>   -24.0176     0.0000     1.0000 </r>
       <r>   -23.8924     0.0000     1.0000 </r>
       <r>   -23.7672     0.0000     1.0000 </r>
       <r>   -23.6420     0.0000     1.0000 </r>
       <r>   -23.5168     0.0000     1.0000 </r>
       <r>   -23.3917     0.0000     1.0000 </r>
       <r>   -23.2665     0.0000     1.0000 </r>
       <r>   -23.1413     0.0000     1.0000 </r>
       <r>   -23.0161     0.0000     1.0000 </r>
       <r>   -22.8910     0.0000     1.0000 </r>
       <r>   -22.7658     0.0000     1.0000 </r>
       <r>   -22.6406     0.0000     1.0000 </r>
       <r>   -22.5154     0.0000     1.0000 </r>
       <r>   -22.3903     0.0000     1.0000 </r>
       <r>   -22.2651     0.0000     1.0000 </r>
       <r>   -22.1399     0.0000     1.0000 </r>
       <r>   -22.0147     0.0000     1.0000 </r>
       <r>   -21.8896     0.0000     1.0000 </r>
       <r>   -21.7644     0.0000     1.0000 </r>
       <r>   -21.6392     0.0000     1.0000 </r>
       <r>   -21.5140     0.0000     1.0000 </r>
       <r>   -21.3888     0.0000     1.0000 </r>
       <r>   -21.2637     0.0000     1.0000 </r>
       <r>   -21.1385     0.0000     1.0000 </r>
       <r>   -21.0133     0.0000     1.0000 </r>
       <r>   -20.8881     0.0000     1.0000 </r>
       <r>   -20.7630     0.0000     1.0000 </r>
       <r>   -20.6378     0.0000     1.0000 </r>
       <r>   -20.5126     0.0000     1.0000 </r>
       <r>   -20.3874     0.0000     1.0000 </r>
       <r>   -20.2623     0.0000     1.0000 </r>
       <r>   -20.1371     0.0000     1.0000 </r>
       <r>   -20.0119     0.0000     1.0000 </r>
       <r>   -19.8867     0.0000     1.0000 </r>
       <r>   -19.7615     0.0000     1.0000 </r>
       <r>   -19.6364     0.0000     1.0000 </r>
       <r>   -19.5112     0.0000     1.0000 </r>
       <r>   -19.3860     0.0000     1.0000 </r>
       <r>   -19.2608     0.0000     1.0000 </r>
       <r>   -19.1357     0.0000     1.0000 </r>
       <r>   -19.0105     1.3011     1.1629 </r>
       <r>   -18.8853     6.6455     1.9947 </r>
       <r>   -18.7601     0.0421     2.0000 </r>
       <r>   -18.6350     0.0000     2.0000 </r>
       <r>   -18.5098     0.0000     2.0000 </r>
       <r>   -18.3846     0.0000     2.0000 </r>
       <r>   -18.2594     0.0000     2.0000 </r>
       <r>   -18.1342     0.0000     2.0000 </r>
       <r>   -18.0091     0.0000     2.0000 </r>
       <r>   -17.8839     0.0000     2.0000 </r>
       <r>   -17.7587     0.0000     2.0000 </r>
       <r>   -17.6335     0.0000     2.0000 </r>
       <r>   -17.5084     0.0000     2.0000 </r>
       <r>   -17.3832     0.0000     2.0000 </r>
       <r>   -17.2580     0.0000     2.0000 </r>
       <r>   -17.1328     0.0000     2.0000 </r>
       <r>   -17.0077     0.0000     2.0000 </r>
       <r>   -16.8825     0.0000     2.0000 </r>
       <r>   -16.7573     0.0000     2.0000 </r>
       <r>   -16.6321     0.0000     2.0000 </r>
       <r>   -16.5070     0.0000     2.0000 </r>
       <r>   -16.3818     0.0000     2.0000 </r>
       <r>   -16.2566     0.0000     2.0000 </r>
       <r>   -16.1314     0.0000     2.0000 </r>
       <r>   -16.0062     0.0000     2.0000 </r>
       <r>   -15.8811     0.0000     2.0000 </r>
       <r>   -15.7559     0.0000     2.0000 </r>
       <r>   -15.6307     0.0000     2.0000 </r>
       <r>   -15.5055     0.0000     2.0000 </r>
       <r>   -15.3804     0.0000     2.0000 </r>
       <r>   -15.2552     0.0000     2.0000 </r>
       <r>   -15.1300     0.0000     2.0000 </r>
       <r>   -15.0048     0.0000     2.0000 </r>
       <r>   -14.8797     0.0000     2.0000 </r>
       <r>   -14.7545     0.0000     2.0000 </r>
       <r>   -14.6293     0.0000     2.0000 </r>
       <r>   -14.5041     0.0000     2.0000 </r>
       <r>   -14.3789     0.0000     2.0000 </r>
       <r>   -14.2538     0.0000     2.0000 </r>
       <r>   -14.1286     0.0000     2.0000 </r>
       <r>   -14.0034     0.0000     2.0000 </r>
       <r>   -13.8782     0.0000     2.0000 </r>
       <r>   -13.7531     0.0000     2.0000 </r>
       <r>   -13.6279     0.0000     2.0000 </r>
       <r>   -13.5027     0.0000     2.0000 </r>
       <r>   -13.3775     0.0000     2.0000 </r>
       <r>   -13.2524     0.0000     2.0000 </r>
       <r>   -13.1272     0.0000     2.0000 </r>
       <r>   -13.0020     0.0000     2.0000 </r>
       <r>   -12.8768     0.0000     2.0000 </r>
       <r>   -12.7517     0.0000     2.0000 </r>
       <r>   -12.6265     0.0000     2.0000 </r>
       <r>   -12.5013     0.0000     2.0000 </r>
       <r>   -12.3761     0.0000     2.0000 </r>
       <r>   -12.2509     0.0000     2.0000 </r>
       <r>   -12.1258     0.0000     2.0000 </r>
       <r>   -12.0006     0.0000     2.0000 </r>
       <r>   -11.8754     0.0000     2.0000 </r>
       <r>   -11.7502     0.7397     2.0926 </r>
       <r>   -11.6251     7.1423     2.9866 </r>
       <r>   -11.4999     0.1067     3.0000 </r>
       <r>   -11.3747     0.0000     3.0000 </r>
       <r>   -11.2495     0.0000     3.0000 </r>
       <r>   -11.1244     0.0000     3.0000 </r>
       <r>   -10.9992     0.0000     3.0000 </r>
       <r>   -10.8740     0.0000     3.0000 </r>
       <r>   -10.7488     0.0000     3.0000 </r>
       <r>   -10.6236     0.0000     3.0000 </r>
       <r>   -10.4985     0.4778     3.0598 </r>
       <r>   -10.3733    14.7227     4.9028 </r>
       <r>   -10.2481     0.7769     5.0000 </r>
       <r>   -10.1229     0.0000     5.0000 </r>
       <r>    -9.9978     0.0000     5.0000 </r>
       <r>    -9.8726     0.0000     5.0000 </r>
       <r>    -9.7474     0.0000     5.0000 </r>
       <r>    -9.6222     0.0000     5.0000 </r>
       <r>    -9.4971     0.0000     5.0000 </r>
       <r>    -9.3719     0.0000     5.0000 </r>
       <r>    -9.2467     0.0000     5.0000 </r>
       <r>    -9.1215     0.0000     5.0000 </r>
       <r>    -8.9963     0.0000     5.0000 </r>
       <r>    -8.8712     0.0000     5.0000 </r>
       <r>    -8.7460     0.0000     5.0000 </r>
       <r>    -8.6208     0.0000     5.0000 </r>
       <r>    -8.4956     0.0000     5.0000 </r>
       <r>    -8.3705     0.0000     5.0000 </r>
       <r>    -8.2453     0.0000     5.0000 </r>
       <r>    -8.1201     0.0000     5.0000 </r>
       <r>    -7.9949     0.0000     5.0000 </r>
       <r>    -7.8698     0.0000     5.0000 </r>
       <r>    -7.7446     0.0000     5.0000 </r>
       <r>    -7.6194     0.0000     5.0000 </r>
       <r>    -7.4942     0.0000     5.0000 </r>
       <r>    -7.3691     0.0000     5.0000 </r>
       <r>    -7.2439     0.0000     5.0000 </r>
       <r>    -7.1187     0.0000     5.0000 </r>
       <r>    -6.9935     0.0000     5.0000 </r>
       <r>    -6.8683     0.0000     5.0000 </r>
       <r>    -6.7432     0.0000     5.0000 </r>
       <r>    -6.6180     0.0000     5.0000 </r>
       <r>    -6.4928     0.0000     5.0000 </r>
       <r>    -6.3676     0.0000     5.0000 </r>
       <r>    -6.2425     0.0000     5.0000 </r>
       <r>    -6.1173     0.0000     5.0000 </r>
       <r>    -5.9921     0.0000     5.0000 </r>
       <r>    -5.8669     0.0000     5.0000 </r>
       <r>    -5.7418     0.0000     5.0000 </r>
       <r>    -5.6166     0.0000     5.0000 </r>
       <r>    -5.4914     0.0000     5.0000 </r>
       <r>    -5.3662     0.0000     5.0000 </r>
       <r>    -5.2410     0.0000     5.0000 </r>
       <r>    -5.1159     0.0000     5.0000 </r>
       <r>    -4.9907     1.2129     5.1518 </r>
       <r>    -4.8655    14.4843     6.9649 </r>
       <r>    -4.7403     0.2803     7.0000 </r>
       <r>    -4.6152     0.0000     7.0000 </r>
       <r>    -4.4900     0.0000     7.0000 </r>
       <r>    -4.3648     0.0000     7.0000 </r>
       <r>    -4.2396     0.0000     7.0000 </r>
       <r>    -4.1145     0.0000     7.0000 </r>
       <r>    -3.9893     0.0000     7.0000 </r>
       <r>    -3.8641     0.0000     7.0000 </r>
       <r>    -3.7389     0.0000     7.0000 </r>
       <r>    -3.6138     0.0000     7.0000 </r>
       <r>    -3.4886     0.0000     7.0000 </r>
       <r>    -3.3634     0.0000     7.0000 </r>
       <r>    -3.2382     0.0000     7.0000 </r>
       <r>    -3.1130     0.0000     7.0000 </r>
       <r>    -2.9879     0.0000     7.0000 </r>
       <r>    -2.8627     0.0000     7.0000 </r>
       <r>    -2.7375     0.0000     7.0000 </r>
       <r>    -2.6123     0.0000     7.0000 </r>
       <r>    -2.4872     0.0000     7.0000 </r>
       <r>    -2.3620     0.0000     7.0000 </r>
       <r>    -2.2368     0.0000     7.0000 </r>
       <r>    -2.1116     0.0000     7.0000 </r>
       <r>    -1.9865     0.0000     7.0000 </r>
       <r>    -1.8613     0.0000     7.0000 </r>
       <r>    -1.7361     0.0000     7.0000 </r>
       <r>    -1.6109     0.0000     7.0000 </r>
       <r>    -1.4857     0.0000     7.0000 </r>
       <r>    -1.3606     0.0000     7.0000 </r>
       <r>    -1.2354     0.0000     7.0000 </r>
       <r>    -1.1102     0.0000     7.0000 </r>
       <r>    -0.9850     0.0000     7.0000 </r>
       <r>    -0.8599     0.0000     7.0000 </r>
       <r>    -0.7347     0.0000     7.0000 </r>
       <r>    -0.6095     0.0000     7.0000 </r>
       <r>    -0.4843     0.0527     7.0066 </r>
       <r>    -0.3592     6.7848     7.8559 </r>
       <r>    -0.2340     1.1512     8.0000 </r>
       <r>    -0.1088     0.0000     8.0000 </r>
       <r>     0.0164     0.0000     8.0000 </r>
       <r>     0.1416     0.0000     8.0000 </r>
       <r>     0.2667     0.0000     8.0000 </r>
       <r>     0.3919     0.0000     8.0000 </r>
       <r>     0.5171     0.0000     8.0000 </r>
       <r>     0.6423     0.0000     8.0000 </r>
       <r>     0.7674     0.0000     8.0000 </r>
       <r>     0.8926     0.0000     8.0000 </r>
       <r>     1.0178     0.0000     8.0000 </r>
       <r>     1.1430     0.0000     8.0000 </r>
       <r>     1.2681     0.0000     8.0000 </r>
       <r>     1.3933     0.0534     8.0067 </r>
       <r>     1.5185     6.7931     8.8570 </r>
       <r>     1.6437     1.1421     9.0000 </r>
       <r>     1.7688     0.0000     9.0000 </r>
       <r>     1.8940     0.0000     9.0000 </r>
       <r>     2.0192     0.0000     9.0000 </r>
       <r>     2.1444     0.0000     9.0000 </r>
       <r>     2.2696     0.0000     9.0000 </r>
       <r>     2.3947     0.0000     9.0000 </r>
       <r>     2.5199     0.0000     9.0000 </r>
       <r>     2.6451     0.0000     9.0000 </r>
       <r>     2.7703     0.0000     9.0000 </r>
       <r>     2.8954     0.0414     9.0052 </r>
       <r>     3.0206     6.6356     9.8358 </r>
       <r>     3.1458     1.3117    10.0000 </r>
       <r>     3.2710     0.8411    10.1053 </r>
       <r>     3.3961     7.8499    11.0879 </r>
       <r>     3.5213     7.1895    11.9879 </r>
       <r>     3.6465     0.0969    12.0000 </r>
       <r>     3.7717     0.0000    12.0000 </r>
       <r>     3.8969     0.0000    12.0000 </r>
       <r>     4.0220     0.0000    12.0000 </r>
       <r>     4.1472     0.0000    12.0000 </r>
       <r>     4.2724     0.0000    12.0000 </r>
       <r>     4.3976     0.0000    12.0000 </r>
       <r>     4.5227     0.0000    12.0000 </r>
       <r>     4.6479     0.0000    12.0000 </r>
       <r>     4.7731     0.0000    12.0000 </r>
       <r>     4.8983     0.0000    12.0000 </r>
       <r>     5.0234     0.0000    12.0000 </r>
       <r>     5.1486     0.0000    12.0000 </r>
      </set>
     </set>
    </array>
   </total>
  </dos>
 </calculation>
 <structure name="finalpos" >
  <crystal>
   <varray name="basis" >
    <v>       6.00000000       0.00000000       0.00000000 </v>
    <v>       0.00000000       6.00000000       0.00000000 </v>
    <v>       0.00000000       0.00000000       6.00000000 </v>
   </varray>
   <i name="volume">    216.00000000 </i>
   <varray name="rec_basis" >
    <v>       0.16666667       0.00000000       0.00000000 </v>
    <v>       0.00000000       0.16666667       0.00000000 </v>
    <v>       0.00000000       0.00000000       0.16666667 </v>
   </varray>
  </crystal>
  <varray name="positions" >
   <v>       0.39058059       0.50000000       0.50000000 </v>
   <v>       0.60941941       0.50000000       0.50000000 </v>
  </varray>
  <varray name="selective"  type="logical" >
   <v type="logical" >  T  T  T </v>
   <v type="logical" >  T  T  T </v>
  </varray>
  <nose>
   <v>      -3.00000000       0.00000000       0.00010000       0.00010000 </v>
  </nose>
 </structure>
</modeling>
