unknown system                          
           1
     6.000000    0.000000    0.000000
     0.000000    6.000000    0.000000
     0.000000    0.000000    6.000000
   O 
   2
Direct configuration=     1
   0.35000000  0.50000000  0.50000000
   0.65000000  0.50000000  0.50000000
Direct configuration=     2
   0.40692990  0.50000000  0.50000000
   0.59307010  0.50000000  0.50000000
Direct configuration=     3
   0.36143212  0.50000000  0.50000000
   0.63856788  0.50000000  0.50000000
Direct configuration=     4
   0.37113576  0.50000000  0.50000000
   0.62886424  0.50000000  0.50000000
Direct configuration=     5
   0.38903283  0.50000000  0.50000000
   0.61096717  0.50000000  0.50000000
Direct configuration=     6
   0.39203302  0.50000000  0.50000000
   0.60796698  0.50000000  0.50000000
Direct configuration=     7
   0.39048684  0.50000000  0.50000000
   0.60951316  0.50000000  0.50000000
Direct configuration=     8
   0.39058059  0.50000000  0.50000000
   0.60941941  0.50000000  0.50000000
