unknown system                          
   1.00000000000000     
     3.922800    0.000000    0.000000
     0.000000    3.922800    0.000000
     0.000000    0.000000    3.922800
   Sr   Fe   O 
     1     1     3
Direct
  0.500000  0.500000  0.500000
  0.000000  0.000000  0.000000
  0.500000  0.000000  0.000000
  0.000000  0.500000  0.000000
  0.000000  0.000000  0.500000
 
   36   36   36
  1234.6      1179.7      1025.6      803.06      556.67      333.75      169.74      76.868      42.445      38.423    
  44.614      60.491      92.013      145.22      220.93      311.17      399.15      463.82      487.65      463.82    
  399.15      311.17      220.93      145.22      92.013      60.491      44.614      38.423      42.445      76.868    
  169.74      333.75      556.67      803.06      1025.6      1179.7      1179.7      1126.5      977.61      763.16    
  526.76      314.11      158.93      72.179      40.774      37.281      43.274      58.435      88.364      139.02    
  211.38      297.92      382.50      444.79      467.76      444.79      382.50      297.92      211.38      139.02    
  88.364      58.435      43.274      37.281      40.774      72.179      158.93      314.11      526.76      763.16    
  977.61      1126.5      1025.6      977.61      843.80      652.72      444.75      260.98      130.26      60.070    
  36.472      34.108      39.544      52.817      78.408      121.97      184.87      260.86      335.69      391.07    
  411.55      391.07      335.69      260.86      184.87      121.97      78.408      52.817      39.544      34.108    
  36.472      60.070      130.26      260.98      444.75      652.72      843.80      977.61      803.06      763.16    
  652.72      497.22      331.59      189.71      93.332      45.321      31.071      29.576      34.188      45.019    
  64.738      98.275      147.46      207.80      267.94      312.82      329.48      312.82      267.94      207.80    
  147.46      98.275      64.738      45.019      34.188      29.576      31.071      45.321      93.332      189.71    
  331.59      497.22      652.72      763.16      556.67      526.76      444.75      331.59      214.85      119.52    
  59.380      32.821      25.567      24.536      28.188      36.546      50.500      73.462      107.51      150.07    
  193.17      225.68      237.81      225.68      193.17      150.07      107.51      73.462      50.500      36.546    
  28.188      24.536      25.567      32.821      59.380      119.52      214.85      331.59      444.75      526.76    
  333.75      314.11      260.98      189.71      119.52      66.208      36.199      24.647      20.418      19.765    
  22.436      28.436      38.007      52.238      72.918      99.084      126.03      146.60      154.33      146.60    
  126.03      99.084      72.918      52.238      38.007      28.436      22.436      19.765      20.418      24.647    
  36.199      66.208      119.52      189.71      260.98      314.11      169.74      158.93      130.26      93.332    
  59.380      36.199      24.654      19.099      16.224      15.774      17.533      21.494      27.815      36.553    
  47.955      61.970      76.444      87.594      91.806      87.594      76.444      61.970      47.955      36.553    
  27.815      21.494      17.533      15.774      16.224      19.099      24.654      36.199      59.380      93.332    
  130.26      158.93      76.868      72.179      60.070      45.321      32.821      24.647      19.099      15.292    
  13.245      12.776      13.731      16.096      19.947      25.291      31.859      39.036      46.005      51.268    
  53.246      51.268      46.005      39.036      31.859      25.291      19.947      16.096      13.731      12.776    
  13.245      15.292      19.099      24.647      32.821      45.321      60.070      72.179      42.445      40.774    
  36.472      31.071      25.567      20.418      16.224      13.245      11.467      10.760      11.018      12.208    
  14.337      17.367      21.110      25.145      28.828      31.431      32.373      31.431      28.828      25.145    
  21.110      17.367      14.337      12.208      11.018      10.760      11.467      13.245      16.224      20.418    
  25.567      31.071      36.472      40.774      38.423      37.281      34.108      29.576      24.536      19.765    
  15.774      12.776      10.760      9.6211      9.2528      9.5840      10.565      12.124      14.112      16.269    
  18.236      19.622      20.123      19.622      18.236      16.269      14.112      12.124      10.565      9.5840    
  9.2528      9.6211      10.760      12.776      15.774      19.765      24.536      29.576      34.108      37.281    
  44.614      43.274      39.544      34.188      28.188      22.436      17.533      13.731      11.018      9.2528    
  8.2707      7.9366      8.1430      8.7859      9.7349      10.815      11.815      12.522      12.778      12.522    
  11.815      10.815      9.7349      8.7859      8.1430      7.9366      8.2707      9.2528      11.018      13.731    
  17.533      22.436      28.188      34.188      39.544      43.274      60.491      58.435      52.817      45.019    
  36.546      28.436      21.494      16.096      12.208      9.5840      7.9366      7.0238      6.6622      6.7093    
  7.0359      7.5068      7.9792      8.3233      8.4486      8.3233      7.9792      7.5068      7.0359      6.7093    
  6.6622      7.0238      7.9366      9.5840      12.208      16.096      21.494      28.436      36.546      45.019    
  52.817      58.435      92.013      88.364      78.408      64.738      50.500      38.007      27.815      19.947    
  14.337      10.565      8.1430      6.6622      5.8303      5.4476      5.3705      5.4764      5.6496      5.7937    
  5.8483      5.7937      5.6496      5.4764      5.3705      5.4476      5.8303      6.6622      8.1430      10.565    
  14.337      19.947      27.815      38.007      50.500      64.738      78.408      88.364      145.22      139.02    
  121.97      98.275      73.462      52.238      36.553      25.291      17.367      12.124      8.7859      6.7093    
  5.4476      4.7188      4.3487      4.2111      4.1965      4.2192      4.2313      4.2192      4.1965      4.2111    
  4.3487      4.7188      5.4476      6.7093      8.7859      12.124      17.367      25.291      36.553      52.238    
  73.462      98.275      121.97      139.02      220.93      211.38      184.87      147.46      107.51      72.918    
  47.955      31.859      21.110      14.112      9.7349      7.0359      5.3705      4.3487      3.7509      3.4369    
  3.2932      3.2348      3.2187      3.2348      3.2932      3.4369      3.7509      4.3487      5.3705      7.0359    
  9.7349      14.112      21.110      31.859      47.955      72.918      107.51      147.46      184.87      211.38    
  311.17      297.92      260.86      207.80      150.07      99.084      61.970      39.036      25.145      16.269    
  10.815      7.5068      5.4764      4.2111      3.4369      2.9939      2.7598      2.6458      2.6106      2.6458    
  2.7598      2.9939      3.4369      4.2111      5.4764      7.5068      10.815      16.269      25.145      39.036    
  61.970      99.084      150.07      207.80      260.86      297.92      399.15      382.50      335.69      267.94    
  193.17      126.03      76.444      46.005      28.828      18.236      11.815      7.9792      5.6496      4.1965    
  3.2932      2.7598      2.4646      2.3137      2.2659      2.3137      2.4646      2.7598      3.2932      4.1965    
  5.6496      7.9792      11.815      18.236      28.828      46.005      76.444      126.03      193.17      267.94    
  335.69      382.50      463.82      444.79      391.07      312.82      225.68      146.60      87.594      51.268    
  31.431      19.622      12.522      8.3233      5.7937      4.2192      3.2348      2.6458      2.3137      2.1410    
  2.0857      2.1410      2.3137      2.6458      3.2348      4.2192      5.7937      8.3233      12.522      19.622    
  31.431      51.268      87.594      146.60      225.68      312.82      391.07      444.79      487.65      467.76    
  411.55      329.48      237.81      154.33      91.806      53.246      32.373      20.123      12.778      8.4486    
  5.8483      4.2313      3.2187      2.6106      2.2659      2.0857      2.0278      2.0857      2.2659      2.6106    
  3.2187      4.2313      5.8483      8.4486      12.778      20.123      32.373      53.246      91.806      154.33    
  237.81      329.48      411.55      467.76      463.82      444.79      391.07      312.82      225.68      146.60    
  87.594      51.268      31.431      19.622      12.522      8.3233      5.7937      4.2192      3.2348      2.6458    
  2.3137      2.1410      2.0857      2.1410      2.3137      2.6458      3.2348      4.2192      5.7937      8.3233    
  12.522      19.622      31.431      51.268      87.594      146.60      225.68      312.82      391.07      444.79    
  399.15      382.50      335.69      267.94      193.17      126.03      76.444      46.005      28.828      18.236    
  11.815      7.9792      5.6496      4.1965      3.2932      2.7598      2.4646      2.3137      2.2659      2.3137    
  2.4646      2.7598      3.2932      4.1965      5.6496      7.9792      11.815      18.236      28.828      46.005    
  76.444      126.03      193.17      267.94      335.69      382.50      311.17      297.92      260.86      207.80    
  150.07      99.084      61.970      39.036      25.145      16.269      10.815      7.5068      5.4764      4.2111    
  3.4369      2.9939      2.7598      2.6458      2.6106      2.6458      2.7598      2.9939      3.4369      4.2111    
  5.4764      7.5068      10.815      16.269      25.145      39.036      61.970      99.084      150.07      207.80    
  260.86      297.92      220.93      211.38      184.87      147.46      107.51      72.918      47.955      31.859    
  21.110      14.112      9.7349      7.0359      5.3705      4.3487      3.7509      3.4369      3.2932      3.2348    
  3.2187      3.2348      3.2932      3.4369      3.7509      4.3487      5.3705      7.0359      9.7349      14.112    
  21.110      31.859      47.955      72.918      107.51      147.46      184.87      211.38      145.22      139.02    
  121.97      98.275      73.462      52.238      36.553      25.291      17.367      12.124      8.7859      6.7093    
  5.4476      4.7188      4.3487      4.2111      4.1965      4.2192      4.2313      4.2192      4.1965      4.2111    
  4.3487      4.7188      5.4476      6.7093      8.7859      12.124      17.367      25.291      36.553      52.238    
  73.462      98.275      121.97      139.02      92.013      88.364      78.408      64.738      50.500      38.007    
  27.815      19.947      14.337      10.565      8.1430      6.6622      5.8303      5.4476      5.3705      5.4764    
  5.6496      5.7937      5.8483      5.7937      5.6496      5.4764      5.3705      5.4476      5.8303      6.6622    
  8.1430      10.565      14.337      19.947      27.815      38.007      50.500      64.738      78.408      88.364    
  60.491      58.435      52.817      45.019      36.546      28.436      21.494      16.096      12.208      9.5840    
  7.9366      7.0238      6.6622      6.7093      7.0359      7.5068      7.9792      8.3233      8.4486      8.3233    
  7.9792      7.5068      7.0359      6.7093      6.6622      7.0238      7.9366      9.5840      12.208      16.096    
  21.494      28.436      36.546      45.019      52.817      58.435      44.614      43.274      39.544      34.188    
  28.188      22.436      17.533      13.731      11.018      9.2528      8.2707      7.9366      8.1430      8.7859    
  9.7349      10.815      11.815      12.522      12.778      12.522      11.815      10.815      9.7349      8.7859    
  8.1430      7.9366      8.2707      9.2528      11.018      13.731      17.533      22.436      28.188      34.188    
  39.544      43.274      38.423      37.281      34.108      29.576      24.536      19.765      15.774      12.776    
  10.760      9.6211      9.2528      9.5840      10.565      12.124      14.112      16.269      18.236      19.622    
  20.123      19.622      18.236      16.269      14.112      12.124      10.565      9.5840      9.2528      9.6211    
  10.760      12.776      15.774      19.765      24.536      29.576      34.108      37.281      42.445      40.774    
  36.472      31.071      25.567      20.418      16.224      13.245      11.467      10.760      11.018      12.208    
  14.337      17.367      21.110      25.145      28.828      31.431      32.373      31.431      28.828      25.145    
  21.110      17.367      14.337      12.208      11.018      10.760      11.467      13.245      16.224      20.418    
  25.567      31.071      36.472      40.774      76.868      72.179      60.070      45.321      32.821      24.647    
  19.099      15.292      13.245      12.776      13.731      16.096      19.947      25.291      31.859      39.036    
  46.005      51.268      53.246      51.268      46.005      39.036      31.859      25.291      19.947      16.096    
  13.731      12.776      13.245      15.292      19.099      24.647      32.821      45.321      60.070      72.179    
  169.74      158.93      130.26      93.332      59.380      36.199      24.654      19.099      16.224      15.774    
  17.533      21.494      27.815      36.553      47.955      61.970      76.444      87.594      91.806      87.594    
  76.444      61.970      47.955      36.553      27.815      21.494      17.533      15.774      16.224      19.099    
  24.654      36.199      59.380      93.332      130.26      158.93      333.75      314.11      260.98      189.71    
  119.52      66.208      36.199      24.647      20.418      19.765      22.436      28.436      38.007      52.238    
  72.918      99.084      126.03      146.60      154.33      146.60      126.03      99.084      72.918      52.238    
  38.007      28.436      22.436      19.765      20.418      24.647      36.199      66.208      119.52      189.71    
  260.98      314.11      556.67      526.76      444.75      331.59      214.85      119.52      59.380      32.821    
  25.567      24.536      28.188      36.546      50.500      73.462      107.51      150.07      193.17      225.68    
  237.81      225.68      193.17      150.07      107.51      73.462      50.500      36.546      28.188      24.536    
  25.567      32.821      59.380      119.52      214.85      331.59      444.75      526.76      803.06      763.16    
  652.72      497.22      331.59      189.71      93.332      45.321      31.071      29.576      34.188      45.019    
  64.738      98.275      147.46      207.80      267.94      312.82      329.48      312.82      267.94      207.80    
  147.46      98.275      64.738      45.019      34.188      29.576      31.071      45.321      93.332      189.71    
  331.59      497.22      652.72      763.16      1025.6      977.61      843.80      652.72      444.75      260.98    
  130.26      60.070      36.472      34.108      39.544      52.817      78.408      121.97      184.87      260.86    
  335.69      391.07      411.55      391.07      335.69      260.86      184.87      121.97      78.408      52.817    
  39.544      34.108      36.472      60.070      130.26      260.98      444.75      652.72      843.80      977.61    
  1179.7      1126.5      977.61      763.16      526.76      314.11      158.93      72.179      40.774      37.281    
  43.274      58.435      88.364      139.02      211.38      297.92      382.50      444.79      467.76      444.79    
  382.50      297.92      211.38      139.02      88.364      58.435      43.274      37.281      40.774      72.179    
  158.93      314.11      526.76      763.16      977.61      1126.5      1179.7      1126.5      977.61      763.16    
  526.76      314.11      158.93      72.179      40.774      37.281      43.274      58.435      88.364      139.02    
  211.38      297.92      382.50      444.79      467.76      444.79      382.50      297.92      211.38      139.02    
  88.364      58.435      43.274      37.281      40.774      72.179      158.93      314.11      526.76      763.16    
  977.61      1126.5      1126.5      1075.1      931.30      724.81      498.14      295.45      148.76      67.828    
  39.228      36.182      41.984      56.474      84.886      133.08      202.19      285.12      366.38      426.32    
  448.44      426.32      366.38      285.12      202.19      133.08      84.886      56.474      41.984      36.182    
  39.228      67.828      148.76      295.45      498.14      724.81      931.30      1075.1      977.61      931.30    
  802.38      618.79      419.82      245.06      121.84      56.614      35.235      33.128      38.391      51.114    
  75.402      116.78      176.74      249.40      321.14      374.31      393.99      374.31      321.14      249.40    
  176.74      116.78      75.402      51.114      38.391      33.128      35.235      56.614      121.84      245.06    
  419.82      618.79      802.38      931.30      763.16      724.81      618.79      469.92      312.05      177.70    
  87.313      43.016      30.164      28.763      33.231      43.659      62.394      94.190      140.93      198.44    
  255.91      298.84      314.79      298.84      255.91      198.44      140.93      94.190      62.394      43.659    
  33.231      28.763      30.164      43.016      87.313      177.70      312.05      469.92      618.79      724.81    
  526.76      498.14      419.82      312.05      201.40      111.71      55.792      31.543      24.873      23.907    
  27.445      35.512      48.849      70.602      102.86      143.26      184.26      215.23      226.80      215.23    
  184.26      143.26      102.86      70.602      48.849      35.512      27.445      23.907      24.873      31.543    
  55.792      111.71      201.40      312.05      419.82      498.14      314.11      295.45      245.06      177.70    
  111.71      62.059      34.494      23.957      19.910      19.304      21.894      27.686      36.910      50.456    
  70.019      94.768      120.28      139.79      147.12      139.79      120.28      94.768      70.019      50.456    
  36.910      27.686      21.894      19.304      19.910      23.957      34.494      62.059      111.71      177.70    
  245.06      295.45      158.93      148.76      121.84      87.313      55.792      34.494      23.928      18.617    
  15.864      15.447      17.154      20.981      27.080      35.500      46.359      59.617      73.284      83.812    
  87.790      83.812      73.284      59.617      46.359      35.500      27.080      20.981      17.154      15.447    
  15.864      18.617      23.928      34.494      55.792      87.313      121.84      148.76      72.179      67.828    
  56.614      43.016      31.543      23.957      18.617      14.954      12.989      12.542      13.470      15.758    
  19.479      24.638      30.974      37.861      44.487      49.470      51.340      49.470      44.487      37.861    
  30.974      24.638      19.479      15.758      13.470      12.542      12.989      14.954      18.617      23.957    
  31.543      43.016      56.614      67.828      40.774      39.228      35.235      30.164      24.873      19.910    
  15.864      12.989      11.270      10.585      10.835      11.988      14.049      16.980      20.598      24.495    
  28.049      30.561      31.469      30.561      28.049      24.495      20.598      16.980      14.049      11.988    
  10.835      10.585      11.270      12.989      15.864      19.910      24.873      30.164      35.235      39.228    
  37.281      36.182      33.128      28.763      23.907      19.304      15.447      12.542      10.585      9.4762    
  9.1156      9.4358      10.388      11.901      13.828      15.918      17.822      19.163      19.647      19.163    
  17.822      15.918      13.828      11.901      10.388      9.4358      9.1156      9.4762      10.585      12.542    
  15.447      19.304      23.907      28.763      33.128      36.182      43.274      41.984      38.391      33.231    
  27.445      21.894      17.154      13.470      10.835      9.1156      8.1569      7.8296      8.0300      8.6563    
  9.5804      10.632      11.604      12.291      12.540      12.291      11.604      10.632      9.5804      8.6563    
  8.0300      7.8296      8.1569      9.1156      10.835      13.470      17.154      21.894      27.445      33.231    
  38.391      41.984      58.435      56.474      51.114      43.659      35.512      27.686      20.981      15.758    
  11.988      9.4358      7.8296      6.9380      6.5849      6.6317      6.9522      7.4135      7.8759      8.2125    
  8.3352      8.2125      7.8759      7.4135      6.9522      6.6317      6.5849      6.9380      7.8296      9.4358    
  11.988      15.758      20.981      27.686      35.512      43.659      51.114      56.474      88.364      84.886    
  75.402      62.394      48.849      36.910      27.080      19.479      14.049      10.388      8.0300      6.5849    
  5.7722      5.3993      5.3261      5.4323      5.6040      5.7466      5.8006      5.7466      5.6040      5.4323    
  5.3261      5.3993      5.7722      6.5849      8.0300      10.388      14.049      19.479      27.080      36.910    
  48.849      62.394      75.402      84.886      139.02      133.08      116.78      94.190      70.602      50.456    
  35.500      24.638      16.980      11.901      8.6563      6.6317      5.3993      4.6877      4.3279      4.1960    
  4.1843      4.2085      4.2211      4.2085      4.1843      4.1960      4.3279      4.6877      5.3993      6.6317    
  8.6563      11.901      16.980      24.638      35.500      50.456      70.602      94.190      116.78      133.08    
  211.38      202.19      176.74      140.93      102.86      70.019      46.359      30.974      20.598      13.828    
  9.5804      6.9522      5.3261      4.3279      3.7449      3.4402      3.3022      3.2470      3.2320      3.2470    
  3.3022      3.4402      3.7449      4.3279      5.3261      6.9522      9.5804      13.828      20.598      30.974    
  46.359      70.019      102.86      140.93      176.74      202.19      297.92      285.12      249.40      198.44    
  143.26      94.768      59.617      37.861      24.495      15.918      10.632      7.4135      5.4323      4.1960    
  3.4402      3.0090      2.7824      2.6728      2.6391      2.6728      2.7824      3.0090      3.4402      4.1960    
  5.4323      7.4135      10.632      15.918      24.495      37.861      59.617      94.768      143.26      198.44    
  249.40      285.12      382.50      366.38      321.14      255.91      184.26      120.28      73.284      44.487    
  28.049      17.822      11.604      7.8759      5.6040      4.1843      3.3022      2.7824      2.4959      2.3502    
  2.3042      2.3502      2.4959      2.7824      3.3022      4.1843      5.6040      7.8759      11.604      17.822    
  28.049      44.487      73.284      120.28      184.26      255.91      321.14      366.38      444.79      426.32    
  374.31      298.84      215.23      139.79      83.812      49.470      30.561      19.163      12.291      8.2125    
  5.7466      4.2085      3.2470      2.6728      2.3502      2.1830      2.1297      2.1830      2.3502      2.6728    
  3.2470      4.2085      5.7466      8.2125      12.291      19.163      30.561      49.470      83.812      139.79    
  215.23      298.84      374.31      426.32      467.76      448.44      393.99      314.79      226.80      147.12    
  87.790      51.340      31.469      19.647      12.540      8.3352      5.8006      4.2211      3.2320      2.6391    
  2.3042      2.1297      2.0739      2.1297      2.3042      2.6391      3.2320      4.2211      5.8006      8.3352    
  12.540      19.647      31.469      51.340      87.790      147.12      226.80      314.79      393.99      448.44    
  444.79      426.32      374.31      298.84      215.23      139.79      83.812      49.470      30.561      19.163    
  12.291      8.2125      5.7466      4.2085      3.2470      2.6728      2.3502      2.1830      2.1297      2.1830    
  2.3502      2.6728      3.2470      4.2085      5.7466      8.2125      12.291      19.163      30.561      49.470    
  83.812      139.79      215.23      298.84      374.31      426.32      382.50      366.38      321.14      255.91    
  184.26      120.28      73.284      44.487      28.049      17.822      11.604      7.8759      5.6040      4.1843    
  3.3022      2.7824      2.4959      2.3502      2.3042      2.3502      2.4959      2.7824      3.3022      4.1843    
  5.6040      7.8759      11.604      17.822      28.049      44.487      73.284      120.28      184.26      255.91    
  321.14      366.38      297.92      285.12      249.40      198.44      143.26      94.768      59.617      37.861    
  24.495      15.918      10.632      7.4135      5.4323      4.1960      3.4402      3.0090      2.7824      2.6728    
  2.6391      2.6728      2.7824      3.0090      3.4402      4.1960      5.4323      7.4135      10.632      15.918    
  24.495      37.861      59.617      94.768      143.26      198.44      249.40      285.12      211.38      202.19    
  176.74      140.93      102.86      70.019      46.359      30.974      20.598      13.828      9.5804      6.9522    
  5.3261      4.3279      3.7449      3.4402      3.3022      3.2470      3.2320      3.2470      3.3022      3.4402    
  3.7449      4.3279      5.3261      6.9522      9.5804      13.828      20.598      30.974      46.359      70.019    
  102.86      140.93      176.74      202.19      139.02      133.08      116.78      94.190      70.602      50.456    
  35.500      24.638      16.980      11.901      8.6563      6.6317      5.3993      4.6877      4.3279      4.1960    
  4.1843      4.2085      4.2211      4.2085      4.1843      4.1960      4.3279      4.6877      5.3993      6.6317    
  8.6563      11.901      16.980      24.638      35.500      50.456      70.602      94.190      116.78      133.08    
  88.364      84.886      75.402      62.394      48.849      36.910      27.080      19.479      14.049      10.388    
  8.0300      6.5849      5.7722      5.3993      5.3261      5.4323      5.6040      5.7466      5.8006      5.7466    
  5.6040      5.4323      5.3261      5.3993      5.7722      6.5849      8.0300      10.388      14.049      19.479    
  27.080      36.910      48.849      62.394      75.402      84.886      58.435      56.474      51.114      43.659    
  35.512      27.686      20.981      15.758      11.988      9.4358      7.8296      6.9380      6.5849      6.6317    
  6.9522      7.4135      7.8759      8.2125      8.3352      8.2125      7.8759      7.4135      6.9522      6.6317    
  6.5849      6.9380      7.8296      9.4358      11.988      15.758      20.981      27.686      35.512      43.659    
  51.114      56.474      43.274      41.984      38.391      33.231      27.445      21.894      17.154      13.470    
  10.835      9.1156      8.1569      7.8296      8.0300      8.6563      9.5804      10.632      11.604      12.291    
  12.540      12.291      11.604      10.632      9.5804      8.6563      8.0300      7.8296      8.1569      9.1156    
  10.835      13.470      17.154      21.894      27.445      33.231      38.391      41.984      37.281      36.182    
  33.128      28.763      23.907      19.304      15.447      12.542      10.585      9.4762      9.1156      9.4358    
  10.388      11.901      13.828      15.918      17.822      19.163      19.647      19.163      17.822      15.918    
  13.828      11.901      10.388      9.4358      9.1156      9.4762      10.585      12.542      15.447      19.304    
  23.907      28.763      33.128      36.182      40.774      39.228      35.235      30.164      24.873      19.910    
  15.864      12.989      11.270      10.585      10.835      11.988      14.049      16.980      20.598      24.495    
  28.049      30.561      31.469      30.561      28.049      24.495      20.598      16.980      14.049      11.988    
  10.835      10.585      11.270      12.989      15.864      19.910      24.873      30.164      35.235      39.228    
  72.179      67.828      56.614      43.016      31.543      23.957      18.617      14.954      12.989      12.542    
  13.470      15.758      19.479      24.638      30.974      37.861      44.487      49.470      51.340      49.470    
  44.487      37.861      30.974      24.638      19.479      15.758      13.470      12.542      12.989      14.954    
  18.617      23.957      31.543      43.016      56.614      67.828      158.93      148.76      121.84      87.313    
  55.792      34.494      23.928      18.617      15.864      15.447      17.154      20.981      27.080      35.500    
  46.359      59.617      73.284      83.812      87.790      83.812      73.284      59.617      46.359      35.500    
  27.080      20.981      17.154      15.447      15.864      18.617      23.928      34.494      55.792      87.313    
  121.84      148.76      314.11      295.45      245.06      177.70      111.71      62.059      34.494      23.957    
  19.910      19.304      21.894      27.686      36.910      50.456      70.019      94.768      120.28      139.79    
  147.12      139.79      120.28      94.768      70.019      50.456      36.910      27.686      21.894      19.304    