unknown system                          
   1.00000000000000     
     3.922800    0.000000    0.000000
     0.000000    3.922800    0.000000
     0.000000    0.000000    3.922800
   Sr   Fe   O 
     1     1     3
Direct
  0.500000  0.500000  0.500000
  0.000000  0.000000  0.000000
  0.500000  0.000000  0.000000
  0.000000  0.500000  0.000000
  0.000000  0.000000  0.500000
 
   36   36   36
 0.12346025700E+04 0.11796660224E+04 0.10256054547E+04 0.80306034088E+03 0.55667370432E+03
 0.33374899521E+03 0.16973556940E+03 0.76867868255E+02 0.42445227845E+02 0.38422924427E+02
 0.44614381899E+02 0.60490923087E+02 0.92012674532E+02 0.14521979802E+03 0.22092990965E+03
 0.31117334686E+03 0.39914816115E+03 0.46381812979E+03 0.48764856573E+03 0.46381812979E+03
 0.39914816115E+03 0.31117334686E+03 0.22092990965E+03 0.14521979802E+03 0.92012674532E+02
 0.60490923087E+02 0.44614381899E+02 0.38422924427E+02 0.42445227845E+02 0.76867868255E+02
 0.16973556940E+03 0.33374899521E+03 0.55667370432E+03 0.80306034088E+03 0.10256054547E+04
 0.11796660224E+04 0.11796660224E+04 0.11264955455E+04 0.97761001553E+03 0.76316405362E+03
 0.52675625706E+03 0.31410583074E+03 0.15892910009E+03 0.72179321499E+02 0.40774461138E+02
 0.37280792176E+02 0.43274348525E+02 0.58434680509E+02 0.88364323528E+02 0.13901874441E+03
 0.21137679231E+03 0.29791840253E+03 0.38250200306E+03 0.44478532228E+03 0.46775576998E+03
 0.44478532228E+03 0.38250200306E+03 0.29791840253E+03 0.21137679231E+03 0.13901874441E+03
 0.88364323528E+02 0.58434680509E+02 0.43274348525E+02 0.37280792176E+02 0.40774461138E+02
 0.72179321499E+02 0.15892910009E+03 0.31410583074E+03 0.52675625706E+03 0.76316405362E+03
 0.97761001553E+03 0.11264955455E+04 0.10256054547E+04 0.97761001553E+03 0.84380220258E+03
 0.65272117275E+03 0.44475108494E+03 0.26098318814E+03 0.13025798713E+03 0.60070267380E+02
 0.36472367449E+02 0.34108330969E+02 0.39543892564E+02 0.52817120605E+02 0.78408134691E+02
 0.12196549043E+03 0.18487141844E+03 0.26085911754E+03 0.33569166071E+03 0.39107154269E+03
 0.41154679311E+03 0.39107154269E+03 0.33569166071E+03 0.26085911754E+03 0.18487141844E+03
 0.12196549043E+03 0.78408134691E+02 0.52817120605E+02 0.39543892564E+02 0.34108330969E+02
 0.36472367449E+02 0.60070267380E+02 0.13025798713E+03 0.26098318814E+03 0.44475108494E+03
 0.65272117275E+03 0.84380220258E+03 0.97761001553E+03 0.80306034088E+03 0.76316405362E+03
 0.65272117275E+03 0.49721864979E+03 0.33159083504E+03 0.18971426822E+03 0.93332303393E+02
 0.45321074353E+02 0.31070938483E+02 0.29575520331E+02 0.34188459295E+02 0.45019033226E+02
 0.64737523085E+02 0.98274555881E+02 0.14745552232E+03 0.20779579229E+03 0.26794468976E+03
 0.31281854913E+03 0.32947595471E+03 0.31281854913E+03 0.26794468976E+03 0.20779579229E+03
 0.14745552232E+03 0.98274555881E+02 0.64737523085E+02 0.45019033226E+02 0.34188459295E+02
 0.29575520331E+02 0.31070938483E+02 0.45321074353E+02 0.93332303393E+02 0.18971426822E+03
 0.33159083504E+03 0.49721864979E+03 0.65272117275E+03 0.76316405362E+03 0.55667370432E+03
 0.52675625706E+03 0.44475108494E+03 0.33159083504E+03 0.21484646049E+03 0.11951730814E+03
 0.59379872901E+02 0.32821218177E+02 0.25566692636E+02 0.24536445020E+02 0.28187722587E+02
 0.36546307646E+02 0.50500142888E+02 0.73462007907E+02 0.10751032741E+03 0.15006907453E+03
 0.19317186903E+03 0.22567809970E+03 0.23780982998E+03 0.22567809970E+03 0.19317186903E+03
 0.15006907453E+03 0.10751032741E+03 0.73462007907E+02 0.50500142888E+02 0.36546307646E+02
 0.28187722587E+02 0.24536445020E+02 0.25566692636E+02 0.32821218177E+02 0.59379872901E+02
 0.11951730814E+03 0.21484646049E+03 0.33159083504E+03 0.44475108494E+03 0.52675625706E+03
 0.33374899521E+03 0.31410583074E+03 0.26098318814E+03 0.18971426822E+03 0.11951730814E+03
 0.66207785889E+02 0.36199165092E+02 0.24646739834E+02 0.20418484648E+02 0.19765222418E+02
 0.22436015758E+02 0.28435942207E+02 0.38006979866E+02 0.52237850279E+02 0.72917531588E+02
 0.99084148196E+02 0.12602585389E+03 0.14660005162E+03 0.15432845777E+03 0.14660005162E+03
 0.12602585389E+03 0.99084148196E+02 0.72917531588E+02 0.52237850279E+02 0.38006979866E+02
 0.28435942207E+02 0.22436015758E+02 0.19765222418E+02 0.20418484648E+02 0.24646739834E+02
 0.36199165092E+02 0.66207785889E+02 0.11951730814E+03 0.18971426822E+03 0.26098318814E+03
 0.31410583074E+03 0.16973556940E+03 0.15892910009E+03 0.13025798713E+03 0.93332303393E+02
 0.59379872901E+02 0.36199165092E+02 0.24654366128E+02 0.19098925195E+02 0.16223805095E+02
 0.15774482173E+02 0.17532906848E+02 0.21493950595E+02 0.27815125772E+02 0.36553210971E+02
 0.47954555995E+02 0.61970342407E+02 0.76444340363E+02 0.87594356805E+02 0.91806399957E+02
 0.87594356805E+02 0.76444340363E+02 0.61970342407E+02 0.47954555995E+02 0.36553210971E+02
 0.27815125772E+02 0.21493950595E+02 0.17532906848E+02 0.15774482173E+02 0.16223805095E+02
 0.19098925195E+02 0.24654366128E+02 0.36199165092E+02 0.59379872901E+02 0.93332303393E+02
 0.13025798713E+03 0.15892910009E+03 0.76867868255E+02 0.72179321499E+02 0.60070267380E+02
 0.45321074353E+02 0.32821218177E+02 0.24646739834E+02 0.19098925195E+02 0.15291630892E+02
 0.13245220303E+02 0.12775802977E+02 0.13731027756E+02 0.16096132251E+02 0.19946775639E+02
 0.25290868546E+02 0.31859136407E+02 0.39036092079E+02 0.46004959305E+02 0.51267866859E+02
 0.53246276724E+02 0.51267866859E+02 0.46004959305E+02 0.39036092079E+02 0.31859136407E+02
 0.25290868546E+02 0.19946775639E+02 0.16096132251E+02 0.13731027756E+02 0.12775802977E+02
 0.13245220303E+02 0.15291630892E+02 0.19098925195E+02 0.24646739834E+02 0.32821218177E+02
 0.45321074353E+02 0.60070267380E+02 0.72179321499E+02 0.42445227845E+02 0.40774461138E+02
 0.36472367449E+02 0.31070938483E+02 0.25566692636E+02 0.20418484648E+02 0.16223805095E+02
 0.13245220303E+02 0.11466921586E+02 0.10759958648E+02 0.11018334043E+02 0.12208287875E+02
 0.14336777120E+02 0.17366837455E+02 0.21110068103E+02 0.25145122001E+02 0.28828055840E+02
 0.31431422262E+02 0.32373485992E+02 0.31431422262E+02 0.28828055840E+02 0.25145122001E+02
 0.21110068103E+02 0.17366837455E+02 0.14336777120E+02 0.12208287875E+02 0.11018334043E+02
 0.10759958648E+02 0.11466921586E+02 0.13245220303E+02 0.16223805095E+02 0.20418484648E+02
 0.25566692636E+02 0.31070938483E+02 0.36472367449E+02 0.40774461138E+02 0.38422924427E+02
 0.37280792176E+02 0.34108330969E+02 0.29575520331E+02 0.24536445020E+02 0.19765222418E+02
 0.15774482173E+02 0.12775802977E+02 0.10759958648E+02 0.96211492113E+01 0.92527623230E+01
 0.95840379685E+01 0.10565460127E+02 0.12124331361E+02 0.14112194620E+02 0.16269470541E+02
 0.18235997529E+02 0.19622320100E+02 0.20123106921E+02 0.19622320100E+02 0.18235997529E+02
 0.16269470541E+02 0.14112194620E+02 0.12124331361E+02 0.10565460127E+02 0.95840379685E+01
 0.92527623230E+01 0.96211492113E+01 0.10759958648E+02 0.12775802977E+02 0.15774482173E+02
 0.19765222418E+02 0.24536445020E+02 0.29575520331E+02 0.34108330969E+02 0.37280792176E+02
 0.44614381899E+02 0.43274348525E+02 0.39543892564E+02 0.34188459295E+02 0.28187722587E+02
 0.22436015758E+02 0.17532906848E+02 0.13731027756E+02 0.11018334043E+02 0.92527623230E+01
 0.82707131910E+01 0.79365848071E+01 0.81430086790E+01 0.87859138862E+01 0.97348673279E+01
 0.10815106722E+02 0.11814897211E+02 0.12522076678E+02 0.12777535884E+02 0.12522076678E+02
 0.11814897211E+02 0.10815106722E+02 0.97348673279E+01 0.87859138862E+01 0.81430086790E+01
 0.79365848071E+01 0.82707131910E+01 0.92527623230E+01 0.11018334043E+02 0.13731027756E+02
 0.17532906848E+02 0.22436015758E+02 0.28187722587E+02 0.34188459295E+02 0.39543892564E+02
 0.43274348525E+02 0.60490923087E+02 0.58434680509E+02 0.52817120605E+02 0.45019033226E+02
 0.36546307646E+02 0.28435942207E+02 0.21493950595E+02 0.16096132251E+02 0.12208287875E+02
 0.95840379685E+01 0.79365848071E+01 0.70237525750E+01 0.66622437654E+01 0.67092842451E+01
 0.70359222904E+01 0.75067916912E+01 0.79792245848E+01 0.83232758836E+01 0.84486482811E+01
 0.83232758836E+01 0.79792245848E+01 0.75067916912E+01 0.70359222904E+01 0.67092842451E+01
 0.66622437654E+01 0.70237525750E+01 0.79365848071E+01 0.95840379685E+01 0.12208287875E+02
 0.16096132251E+02 0.21493950595E+02 0.28435942207E+02 0.36546307646E+02 0.45019033226E+02
 0.52817120605E+02 0.58434680509E+02 0.92012674532E+02 0.88364323528E+02 0.78408134691E+02
 0.64737523085E+02 0.50500142888E+02 0.38006979866E+02 0.27815125772E+02 0.19946775639E+02
 0.14336777120E+02 0.10565460127E+02 0.81430086790E+01 0.66622437654E+01 0.58303172340E+01
 0.54475608678E+01 0.53704686335E+01 0.54763698513E+01 0.56496329000E+01 0.57937460404E+01
 0.58483358516E+01 0.57937460404E+01 0.56496329000E+01 0.54763698513E+01 0.53704686335E+01
 0.54475608678E+01 0.58303172340E+01 0.66622437654E+01 0.81430086790E+01 0.10565460127E+02
 0.14336777120E+02 0.19946775639E+02 0.27815125772E+02 0.38006979866E+02 0.50500142888E+02
 0.64737523085E+02 0.78408134691E+02 0.88364323528E+02 0.14521979802E+03 0.13901874441E+03
 0.12196549043E+03 0.98274555881E+02 0.73462007907E+02 0.52237850279E+02 0.36553210971E+02
 0.25290868546E+02 0.17366837455E+02 0.12124331361E+02 0.87859138862E+01 0.67092842451E+01
 0.54475608678E+01 0.47188002263E+01 0.43487095578E+01 0.42110899501E+01 0.41964987117E+01
 0.42191768791E+01 0.42312900436E+01 0.42191768791E+01 0.41964987117E+01 0.42110899501E+01
 0.43487095578E+01 0.47188002263E+01 0.54475608678E+01 0.67092842451E+01 0.87859138862E+01
 0.12124331361E+02 0.17366837455E+02 0.25290868546E+02 0.36553210971E+02 0.52237850279E+02
 0.73462007907E+02 0.98274555881E+02 0.12196549043E+03 0.13901874441E+03 0.22092990965E+03
 0.21137679231E+03 0.18487141844E+03 0.14745552232E+03 0.10751032741E+03 0.72917531588E+02
 0.47954555995E+02 0.31859136407E+02 0.21110068103E+02 0.14112194620E+02 0.97348673279E+01
 0.70359222904E+01 0.53704686335E+01 0.43487095578E+01 0.37508933936E+01 0.34368848572E+01
 0.32932125102E+01 0.32347533456E+01 0.32187261718E+01 0.32347533456E+01 0.32932125102E+01
 0.34368848572E+01 0.37508933936E+01 0.43487095578E+01 0.53704686335E+01 0.70359222904E+01
 0.97348673279E+01 0.14112194620E+02 0.21110068103E+02 0.31859136407E+02 0.47954555995E+02
 0.72917531588E+02 0.10751032741E+03 0.14745552232E+03 0.18487141844E+03 0.21137679231E+03
 0.31117334686E+03 0.29791840253E+03 0.26085911754E+03 0.20779579229E+03 0.15006907453E+03
 0.99084148196E+02 0.61970342407E+02 0.39036092079E+02 0.25145122001E+02 0.16269470541E+02
 0.10815106722E+02 0.75067916912E+01 0.54763698513E+01 0.42110899501E+01 0.34368848572E+01
 0.29938702980E+01 0.27598147527E+01 0.26458103547E+01 0.26106280624E+01 0.26458103547E+01
 0.27598147527E+01 0.29938702980E+01 0.34368848572E+01 0.42110899501E+01 0.54763698513E+01
 0.75067916912E+01 0.10815106722E+02 0.16269470541E+02 0.25145122001E+02 0.39036092079E+02
 0.61970342407E+02 0.99084148196E+02 0.15006907453E+03 0.20779579229E+03 0.26085911754E+03
 0.29791840253E+03 0.39914816115E+03 0.38250200306E+03 0.33569166071E+03 0.26794468976E+03
 0.19317186903E+03 0.12602585389E+03 0.76444340363E+02 0.46004959305E+02 0.28828055840E+02
 0.18235997529E+02 0.11814897211E+02 0.79792245848E+01 0.56496329000E+01 0.41964987117E+01
 0.32932125102E+01 0.27598147527E+01 0.24646041929E+01 0.23137463679E+01 0.22659254933E+01
 0.23137463679E+01 0.24646041929E+01 0.27598147527E+01 0.32932125102E+01 0.41964987117E+01
 0.56496329000E+01 0.79792245848E+01 0.11814897211E+02 0.18235997529E+02 0.28828055840E+02
 0.46004959305E+02 0.76444340363E+02 0.12602585389E+03 0.19317186903E+03 0.26794468976E+03
 0.33569166071E+03 0.38250200306E+03 0.46381812979E+03 0.44478532228E+03 0.39107154269E+03
 0.31281854913E+03 0.22567809970E+03 0.14660005162E+03 0.87594356805E+02 0.51267866859E+02
 0.31431422262E+02 0.19622320100E+02 0.12522076678E+02 0.83232758836E+01 0.57937460404E+01
 0.42191768791E+01 0.32347533456E+01 0.26458103547E+01 0.23137463679E+01 0.21409752842E+01
 0.20856792242E+01 0.21409752842E+01 0.23137463679E+01 0.26458103547E+01 0.32347533456E+01
 0.42191768791E+01 0.57937460404E+01 0.83232758836E+01 0.12522076678E+02 0.19622320100E+02
 0.31431422262E+02 0.51267866859E+02 0.87594356805E+02 0.14660005162E+03 0.22567809970E+03
 0.31281854913E+03 0.39107154269E+03 0.44478532228E+03 0.48764856573E+03 0.46775576998E+03
 0.41154679311E+03 0.32947595471E+03 0.23780982998E+03 0.15432845777E+03 0.91806399957E+02
 0.53246276724E+02 0.32373485992E+02 0.20123106921E+02 0.12777535884E+02 0.84486482811E+01
 0.58483358516E+01 0.42312900436E+01 0.32187261718E+01 0.26106280624E+01 0.22659254933E+01
 0.20856792242E+01 0.20278408948E+01 0.20856792242E+01 0.22659254933E+01 0.26106280624E+01
 0.32187261718E+01 0.42312900436E+01 0.58483358516E+01 0.84486482811E+01 0.12777535884E+02
 0.20123106921E+02 0.32373485992E+02 0.53246276724E+02 0.91806399957E+02 0.15432845777E+03
 0.23780982998E+03 0.32947595471E+03 0.41154679311E+03 0.46775576998E+03 0.46381812979E+03
 0.44478532228E+03 0.39107154269E+03 0.31281854913E+03 0.22567809970E+03 0.14660005162E+03
 0.87594356805E+02 0.51267866859E+02 0.31431422262E+02 0.19622320100E+02 0.12522076678E+02
 0.83232758836E+01 0.57937460404E+01 0.42191768791E+01 0.32347533456E+01 0.26458103547E+01
 0.23137463679E+01 0.21409752842E+01 0.20856792242E+01 0.21409752842E+01 0.23137463679E+01
 0.26458103547E+01 0.32347533456E+01 0.42191768791E+01 0.57937460404E+01 0.83232758836E+01
 0.12522076678E+02 0.19622320100E+02 0.31431422262E+02 0.51267866859E+02 0.87594356805E+02
 0.14660005162E+03 0.22567809970E+03 0.31281854913E+03 0.39107154269E+03 0.44478532228E+03
 0.39914816115E+03 0.38250200306E+03 0.33569166071E+03 0.26794468976E+03 0.19317186903E+03
 0.12602585389E+03 0.76444340363E+02 0.46004959305E+02 0.28828055840E+02 0.18235997529E+02
 0.11814897211E+02 0.79792245848E+01 0.56496329000E+01 0.41964987117E+01 0.32932125102E+01
 0.27598147527E+01 0.24646041929E+01 0.23137463679E+01 0.22659254933E+01 0.23137463679E+01
 0.24646041929E+01 0.27598147527E+01 0.32932125102E+01 0.41964987117E+01 0.56496329000E+01
 0.79792245848E+01 0.11814897211E+02 0.18235997529E+02 0.28828055840E+02 0.46004959305E+02
 0.76444340363E+02 0.12602585389E+03 0.19317186903E+03 0.26794468976E+03 0.33569166071E+03
 0.38250200306E+03 0.31117334686E+03 0.29791840253E+03 0.26085911754E+03 0.20779579229E+03
 0.15006907453E+03 0.99084148196E+02 0.61970342407E+02 0.39036092079E+02 0.25145122001E+02
 0.16269470541E+02 0.10815106722E+02 0.75067916912E+01 0.54763698513E+01 0.42110899501E+01
 0.34368848572E+01 0.29938702980E+01 0.27598147527E+01 0.26458103547E+01 0.26106280624E+01
 0.26458103547E+01 0.27598147527E+01 0.29938702980E+01 0.34368848572E+01 0.42110899501E+01
 0.54763698513E+01 0.75067916912E+01 0.10815106722E+02 0.16269470541E+02 0.25145122001E+02
 0.39036092079E+02 0.61970342407E+02 0.99084148196E+02 0.15006907453E+03 0.20779579229E+03
 0.26085911754E+03 0.29791840253E+03 0.22092990965E+03 0.21137679231E+03 0.18487141844E+03
 0.14745552232E+03 0.10751032741E+03 0.72917531588E+02 0.47954555995E+02 0.31859136407E+02
 0.21110068103E+02 0.14112194620E+02 0.97348673279E+01 0.70359222904E+01 0.53704686335E+01
 0.43487095578E+01 0.37508933936E+01 0.34368848572E+01 0.32932125102E+01 0.32347533456E+01
 0.32187261718E+01 0.32347533456E+01 0.32932125102E+01 0.34368848572E+01 0.37508933936E+01
 0.43487095578E+01 0.53704686335E+01 0.70359222904E+01 0.97348673279E+01 0.14112194620E+02
 0.21110068103E+02 0.31859136407E+02 0.47954555995E+02 0.72917531588E+02 0.10751032741E+03
 0.14745552232E+03 0.18487141844E+03 0.21137679231E+03 0.14521979802E+03 0.13901874441E+03
 0.12196549043E+03 0.98274555881E+02 0.73462007907E+02 0.52237850279E+02 0.36553210971E+02
 0.25290868546E+02 0.17366837455E+02 0.12124331361E+02 0.87859138862E+01 0.67092842451E+01
 0.54475608678E+01 0.47188002263E+01 0.43487095578E+01 0.42110899501E+01 0.41964987117E+01
 0.42191768791E+01 0.42312900436E+01 0.42191768791E+01 0.41964987117E+01 0.42110899501E+01
 0.43487095578E+01 0.47188002263E+01 0.54475608678E+01 0.67092842451E+01 0.87859138862E+01
 0.12124331361E+02 0.17366837455E+02 0.25290868546E+02 0.36553210971E+02 0.52237850279E+02
 0.73462007907E+02 0.98274555881E+02 0.12196549043E+03 0.13901874441E+03 0.92012674532E+02
 0.88364323528E+02 0.78408134691E+02 0.64737523085E+02 0.50500142888E+02 0.38006979866E+02
 0.27815125772E+02 0.19946775639E+02 0.14336777120E+02 0.10565460127E+02 0.81430086790E+01
 0.66622437654E+01 0.58303172340E+01 0.54475608678E+01 0.53704686335E+01 0.54763698513E+01
 0.56496329000E+01 0.57937460404E+01 0.58483358516E+01 0.57937460404E+01 0.56496329000E+01
 0.54763698513E+01 0.53704686335E+01 0.54475608678E+01 0.58303172340E+01 0.66622437654E+01
 0.81430086790E+01 0.10565460127E+02 0.14336777120E+02 0.19946775639E+02 0.27815125772E+02
 0.38006979866E+02 0.50500142888E+02 0.64737523085E+02 0.78408134691E+02 0.88364323528E+02
 0.60490923087E+02 0.58434680509E+02 0.52817120605E+02 0.45019033226E+02 0.36546307646E+02
 0.28435942207E+02 0.21493950595E+02 0.16096132251E+02 0.12208287875E+02 0.95840379685E+01
 0.79365848071E+01 0.70237525750E+01 0.66622437654E+01 0.67092842451E+01 0.70359222904E+01
 0.75067916912E+01 0.79792245848E+01 0.83232758836E+01 0.84486482811E+01 0.83232758836E+01
 0.79792245848E+01 0.75067916912E+01 0.70359222904E+01 0.67092842451E+01 0.66622437654E+01
 0.70237525750E+01 0.79365848071E+01 0.95840379685E+01 0.12208287875E+02 0.16096132251E+02
 0.21493950595E+02 0.28435942207E+02 0.36546307646E+02 0.45019033226E+02 0.52817120605E+02
 0.58434680509E+02 0.44614381899E+02 0.43274348525E+02 0.39543892564E+02 0.34188459295E+02
 0.28187722587E+02 0.22436015758E+02 0.17532906848E+02 0.13731027756E+02 0.11018334043E+02
 0.92527623230E+01 0.82707131910E+01 0.79365848071E+01 0.81430086790E+01 0.87859138862E+01
 0.97348673279E+01 0.10815106722E+02 0.11814897211E+02 0.12522076678E+02 0.12777535884E+02
 0.12522076678E+02 0.11814897211E+02 0.10815106722E+02 0.97348673279E+01 0.87859138862E+01
 0.81430086790E+01 0.79365848071E+01 0.82707131910E+01 0.92527623230E+01 0.11018334043E+02
 0.13731027756E+02 0.17532906848E+02 0.22436015758E+02 0.28187722587E+02 0.34188459295E+02
 0.39543892564E+02 0.43274348525E+02 0.38422924427E+02 0.37280792176E+02 0.34108330969E+02
 0.29575520331E+02 0.24536445020E+02 0.19765222418E+02 0.15774482173E+02 0.12775802977E+02
 0.10759958648E+02 0.96211492113E+01 0.92527623230E+01 0.95840379685E+01 0.10565460127E+02
 0.12124331361E+02 0.14112194620E+02 0.16269470541E+02 0.18235997529E+02 0.19622320100E+02
 0.20123106921E+02 0.19622320100E+02 0.18235997529E+02 0.16269470541E+02 0.14112194620E+02
 0.12124331361E+02 0.10565460127E+02 0.95840379685E+01 0.92527623230E+01 0.96211492113E+01
 0.10759958648E+02 0.12775802977E+02 0.15774482173E+02 0.19765222418E+02 0.24536445020E+02
 0.29575520331E+02 0.34108330969E+02 0.37280792176E+02 0.42445227845E+02 0.40774461138E+02
 0.36472367449E+02 0.31070938483E+02 0.25566692636E+02 0.20418484648E+02 0.16223805095E+02
 0.13245220303E+02 0.11466921586E+02 0.10759958648E+02 0.11018334043E+02 0.12208287875E+02
 0.14336777120E+02 0.17366837455E+02 0.21110068103E+02 0.25145122001E+02 0.28828055840E+02
 0.31431422262E+02 0.32373485992E+02 0.31431422262E+02 0.28828055840E+02 0.25145122001E+02
 0.21110068103E+02 0.17366837455E+02 0.14336777120E+02 0.12208287875E+02 0.11018334043E+02
 0.10759958648E+02 0.11466921586E+02 0.13245220303E+02 0.16223805095E+02 0.20418484648E+02
 0.25566692636E+02 0.31070938483E+02 0.36472367449E+02 0.40774461138E+02 0.76867868255E+02
 0.72179321499E+02 0.60070267380E+02 0.45321074353E+02 0.32821218177E+02 0.24646739834E+02
 0.19098925195E+02 0.15291630892E+02 0.13245220303E+02 0.12775802977E+02 0.13731027756E+02
 0.16096132251E+02 0.19946775639E+02 0.25290868546E+02 0.31859136407E+02 0.39036092079E+02
 0.46004959305E+02 0.51267866859E+02 0.53246276724E+02 0.51267866859E+02 0.46004959305E+02
 0.39036092079E+02 0.31859136407E+02 0.25290868546E+02 0.19946775639E+02 0.16096132251E+02
 0.13731027756E+02 0.12775802977E+02 0.13245220303E+02 0.15291630892E+02 0.19098925195E+02
 0.24646739834E+02 0.32821218177E+02 0.45321074353E+02 0.60070267380E+02 0.72179321499E+02
 0.16973556940E+03 0.15892910009E+03 0.13025798713E+03 0.93332303393E+02 0.59379872901E+02
 0.36199165092E+02 0.24654366128E+02 0.19098925195E+02 0.16223805095E+02 0.15774482173E+02
 0.17532906848E+02 0.21493950595E+02 0.27815125772E+02 0.36553210971E+02 0.47954555995E+02
 0.61970342407E+02 0.76444340363E+02 0.87594356805E+02 0.91806399957E+02 0.87594356805E+02
 0.76444340363E+02 0.61970342407E+02 0.47954555995E+02 0.36553210971E+02 0.27815125772E+02
 0.21493950595E+02 0.17532906848E+02 0.15774482173E+02 0.16223805095E+02 0.19098925195E+02
 0.24654366128E+02 0.36199165092E+02 0.59379872901E+02 0.93332303393E+02 0.13025798713E+03
 0.15892910009E+03 0.33374899521E+03 0.31410583074E+03 0.26098318814E+03 0.18971426822E+03
 0.11951730814E+03 0.66207785889E+02 0.36199165092E+02 0.24646739834E+02 0.20418484648E+02
 0.19765222418E+02 0.22436015758E+02 0.28435942207E+02 0.38006979866E+02 0.52237850279E+02
 0.72917531588E+02 0.99084148196E+02 0.12602585389E+03 0.14660005162E+03 0.15432845777E+03
 0.14660005162E+03 0.12602585389E+03 0.99084148196E+02 0.72917531588E+02 0.52237850279E+02
 0.38006979866E+02 0.28435942207E+02 0.22436015758E+02 0.19765222418E+02 0.20418484648E+02
 0.24646739834E+02 0.36199165092E+02 0.66207785889E+02 0.11951730814E+03 0.18971426822E+03
 0.26098318814E+03 0.31410583074E+03 0.55667370432E+03 0.52675625706E+03 0.44475108494E+03
 0.33159083504E+03 0.21484646049E+03 0.11951730814E+03 0.59379872901E+02 0.32821218177E+02
 0.25566692636E+02 0.24536445020E+02 0.28187722587E+02 0.36546307646E+02 0.50500142888E+02
 0.73462007907E+02 0.10751032741E+03 0.15006907453E+03 0.19317186903E+03 0.22567809970E+03
 0.23780982998E+03 0.22567809970E+03 0.19317186903E+03 0.15006907453E+03 0.10751032741E+03
 0.73462007907E+02 0.50500142888E+02 0.36546307646E+02 0.28187722587E+02 0.24536445020E+02
 0.25566692636E+02 0.32821218177E+02 0.59379872901E+02 0.11951730814E+03 0.21484646049E+03
 0.33159083504E+03 0.44475108494E+03 0.52675625706E+03 0.80306034088E+03 0.76316405362E+03
 0.65272117275E+03 0.49721864979E+03 0.33159083504E+03 0.18971426822E+03 0.93332303393E+02
 0.45321074353E+02 0.31070938483E+02 0.29575520331E+02 0.34188459295E+02 0.45019033226E+02
 0.64737523085E+02 0.98274555881E+02 0.14745552232E+03 0.20779579229E+03 0.26794468976E+03
 0.31281854913E+03 0.32947595471E+03 0.31281854913E+03 0.26794468976E+03 0.20779579229E+03
 0.14745552232E+03 0.98274555881E+02 0.64737523085E+02 0.45019033226E+02 0.34188459295E+02
 0.29575520331E+02 0.31070938483E+02 0.45321074353E+02 0.93332303393E+02 0.18971426822E+03
 0.33159083504E+03 0.49721864979E+03 0.65272117275E+03 0.76316405362E+03 0.10256054547E+04
 0.97761001553E+03 0.84380220258E+03 0.65272117275E+03 0.44475108494E+03 0.26098318814E+03
 0.13025798713E+03 0.60070267380E+02 0.36472367449E+02 0.34108330969E+02 0.39543892564E+02
 0.52817120605E+02 0.78408134691E+02 0.12196549043E+03 0.18487141844E+03 0.26085911754E+03
 0.33569166071E+03 0.39107154269E+03 0.41154679311E+03 0.39107154269E+03 0.33569166071E+03
 0.26085911754E+03 0.18487141844E+03 0.12196549043E+03 0.78408134691E+02 0.52817120605E+02
 0.39543892564E+02 0.34108330969E+02 0.36472367449E+02 0.60070267380E+02 0.13025798713E+03
 0.26098318814E+03 0.44475108494E+03 0.65272117275E+03 0.84380220258E+03 0.97761001553E+03
 0.11796660224E+04 0.11264955455E+04 0.97761001553E+03 0.76316405362E+03 0.52675625706E+03
 0.31410583074E+03 0.15892910009E+03 0.72179321499E+02 0.40774461138E+02 0.37280792176E+02
 0.43274348525E+02 0.58434680509E+02 0.88364323528E+02 0.13901874441E+03 0.21137679231E+03
 0.29791840253E+03 0.38250200306E+03 0.44478532228E+03 0.46775576998E+03 0.44478532228E+03
 0.38250200306E+03 0.29791840253E+03 0.21137679231E+03 0.13901874441E+03 0.88364323528E+02
 0.58434680509E+02 0.43274348525E+02 0.37280792176E+02 0.40774461138E+02 0.72179321499E+02
 0.15892910009E+03 0.31410583074E+03 0.52675625706E+03 0.76316405362E+03 0.97761001553E+03
 0.11264955455E+04 0.11796660224E+04 0.11264955455E+04 0.97761001553E+03 0.76316405362E+03
 0.52675625706E+03 0.31410583074E+03 0.15892910009E+03 0.72179321499E+02 0.40774461138E+02
 0.37280792176E+02 0.43274348525E+02 0.58434680509E+02 0.88364323528E+02 0.13901874441E+03
 0.21137679231E+03 0.29791840253E+03 0.38250200306E+03 0.44478532228E+03 0.46775576998E+03
 0.44478532228E+03 0.38250200306E+03 0.29791840253E+03 0.21137679231E+03 0.13901874441E+03
 0.88364323528E+02 0.58434680509E+02 0.43274348525E+02 0.37280792176E+02 0.40774461138E+02
 0.72179321499E+02 0.15892910009E+03 0.31410583074E+03 0.52675625706E+03 0.76316405362E+03
 0.97761001553E+03 0.11264955455E+04 0.11264955455E+04 0.10750747457E+04 0.93130028634E+03
 0.72481060761E+03 0.49814161548E+03 0.29544635898E+03 0.14876218234E+03 0.67827555324E+02
 0.39228112517E+02 0.36181544851E+02 0.41983795502E+02 0.56473898623E+02 0.84885883552E+02
 0.13308210625E+03 0.20218870685E+03 0.28511904748E+03 0.36637960380E+03 0.42631690805E+03
 0.44844063077E+03 0.42631690805E+03 0.36637960380E+03 0.28511904748E+03 0.20218870685E+03
 0.13308210625E+03 0.84885883552E+02 0.56473898623E+02 0.41983795502E+02 0.36181544851E+02
 0.39228112517E+02 0.67827555324E+02 0.14876218234E+03 0.29544635898E+03 0.49814161548E+03
 0.72481060761E+03 0.93130028634E+03 0.10750747457E+04 0.97761001553E+03 0.93130028634E+03
 0.80237559495E+03 0.61878561693E+03 0.41981818528E+03 0.24506330066E+03 0.12184040965E+03
 0.56614010021E+02 0.35234943723E+02 0.33127738594E+02 0.38390636567E+02 0.51114227417E+02
 0.75401605400E+02 0.11677973797E+03 0.17674045337E+03 0.24940291127E+03 0.32113715131E+03
 0.37431075178E+03 0.39398617265E+03 0.37431075178E+03 0.32113715131E+03 0.24940291127E+03
 0.17674045337E+03 0.11677973797E+03 0.75401605400E+02 0.51114227417E+02 0.38390636567E+02
 0.33127738594E+02 0.35234943723E+02 0.56614010021E+02 0.12184040965E+03 0.24506330066E+03
 0.41981818528E+03 0.61878561693E+03 0.80237559495E+03 0.93130028634E+03 0.76316405362E+03
 0.72481060761E+03 0.61878561693E+03 0.46992072828E+03 0.31205444064E+03 0.17769562824E+03
 0.87313317502E+02 0.43016090952E+02 0.30163764917E+02 0.28762834256E+02 0.33230715265E+02
 0.43658713066E+02 0.62394466462E+02 0.94190425629E+02 0.14093088879E+03 0.19844299615E+03
 0.25590644595E+03 0.29884376013E+03 0.31479464800E+03 0.29884376013E+03 0.25590644595E+03
 0.19844299615E+03 0.14093088879E+03 0.94190425629E+02 0.62394466462E+02 0.43658713066E+02
 0.33230715265E+02 0.28762834256E+02 0.30163764917E+02 0.43016090952E+02 0.87313317502E+02
 0.17769562824E+03 0.31205444064E+03 0.46992072828E+03 0.61878561693E+03 0.72481060761E+03
 0.52675625706E+03 0.49814161548E+03 0.41981818528E+03 0.31205444064E+03 0.20140497144E+03
 0.11171483815E+03 0.55791916646E+02 0.31543320801E+02 0.24873152038E+02 0.23906965270E+02
 0.27445401625E+02 0.35512182375E+02 0.48848783880E+02 0.70601721490E+02 0.10285690127E+03
 0.14325949823E+03 0.18426298218E+03 0.21523100572E+03 0.22679713889E+03 0.21523100572E+03
 0.18426298218E+03 0.14325949823E+03 0.10285690127E+03 0.70601721490E+02 0.48848783880E+02
 0.35512182375E+02 0.27445401625E+02 0.23906965270E+02 0.24873152038E+02 0.31543320801E+02
 0.55791916646E+02 0.11171483815E+03 0.20140497144E+03 0.31205444064E+03 0.41981818528E+03
 0.49814161548E+03 0.31410583074E+03 0.29544635898E+03 0.24506330066E+03 0.17769562824E+03
 0.11171483815E+03 0.62058789029E+02 0.34494040526E+02 0.23956971936E+02 0.19909755305E+02
 0.19303793081E+02 0.21894084763E+02 0.27685951416E+02 0.36909756938E+02 0.50455785112E+02
 0.70019173005E+02 0.94767762744E+02 0.12028058102E+03 0.13978593863E+03 0.14711745917E+03
 0.13978593863E+03 0.12028058102E+03 0.94767762744E+02 0.70019173005E+02 0.50455785112E+02
 0.36909756938E+02 0.27685951416E+02 0.21894084763E+02 0.19303793081E+02 0.19909755305E+02
 0.23956971936E+02 0.34494040526E+02 0.62058789029E+02 0.11171483815E+03 0.17769562824E+03
 0.24506330066E+03 0.29544635898E+03 0.15892910009E+03 0.14876218234E+03 0.12184040965E+03
 0.87313317502E+02 0.55791916646E+02 0.34494040526E+02 0.23928394598E+02 0.18617071460E+02
 0.15864142810E+02 0.15446979956E+02 0.17153910985E+02 0.20980887677E+02 0.27080129100E+02
 0.35499922610E+02 0.46359081135E+02 0.59616716279E+02 0.73284268944E+02 0.83812366087E+02
 0.87790233905E+02 0.83812366087E+02 0.73284268944E+02 0.59616716279E+02 0.46359081135E+02
 0.35499922610E+02 0.27080129100E+02 0.20980887677E+02 0.17153910985E+02 0.15446979956E+02
 0.15864142810E+02 0.18617071460E+02 0.23928394598E+02 0.34494040526E+02 0.55791916646E+02
 0.87313317502E+02 0.12184040965E+03 0.14876218234E+03 0.72179321499E+02 0.67827555324E+02
 0.56614010021E+02 0.43016090952E+02 0.31543320801E+02 0.23956971936E+02 0.18617071460E+02
 0.14954169925E+02 0.12988651284E+02 0.12542492148E+02 0.13470227992E+02 0.15758366475E+02
 0.19478943551E+02 0.24637873020E+02 0.30974431201E+02 0.37861198495E+02 0.44486833039E+02
 0.49469703192E+02 0.51340053117E+02 0.49469703192E+02 0.44486833039E+02 0.37861198495E+02
 0.30974431201E+02 0.24637873020E+02 0.19478943551E+02 0.15758366475E+02 0.13470227992E+02
 0.12542492148E+02 0.12988651284E+02 0.14954169925E+02 0.18617071460E+02 0.23956971936E+02
 0.31543320801E+02 0.43016090952E+02 0.56614010021E+02 0.67827555324E+02 0.40774461138E+02
 0.39228112517E+02 0.35234943723E+02 0.30163764917E+02 0.24873152038E+02 0.19909755305E+02
 0.15864142810E+02 0.12988651284E+02 0.11269509256E+02 0.10585025324E+02 0.10835118044E+02
 0.11987810843E+02 0.14048731849E+02 0.16980077166E+02 0.20597924228E+02 0.24494603444E+02
 0.28049076389E+02 0.30560681191E+02 0.31469362209E+02 0.30560681191E+02 0.28049076389E+02
 0.24494603444E+02 0.20597924228E+02 0.16980077166E+02 0.14048731849E+02 0.11987810843E+02
 0.10835118044E+02 0.10585025324E+02 0.11269509256E+02 0.12988651284E+02 0.15864142810E+02
 0.19909755305E+02 0.24873152038E+02 0.30163764917E+02 0.35234943723E+02 0.39228112517E+02
 0.37280792176E+02 0.36181544851E+02 0.33127738594E+02 0.28762834256E+02 0.23906965270E+02