    5    5   99    2
  0.1207309E+02  0.3922800E-09  0.3922800E-09  0.3922800E-09  0.5000000E-15
  1.000000000000000E-004
  CAR 
 unknown system                          
     42     10     28
 
  0.8333333E-01  0.8333333E-01  0.8333333E-01  0.3703704E-01
    1      -54.690602    -50.364035   1.000000   1.000000
    2      -54.690602    -50.364035   1.000000   1.000000
    3      -54.690433    -50.363901   1.000000   1.000000
    4      -30.087318    -30.083895   1.000000   1.000000
    5      -15.338399    -15.202203   1.000000   1.000000
    6      -14.166528    -13.804371   1.000000   1.000000
    7      -14.166528    -13.804371   1.000000   1.000000
    8      -12.118445    -12.101811   1.000000   1.000000
    9      -12.118445    -12.101811   1.000000   1.000000
   10      -12.061289    -12.050976   1.000000   1.000000
   11       -4.384848     -1.502287   1.000000   1.000000
   12       -4.384848     -1.298603   1.000000   1.000000
   13       -4.378698     -1.298603   1.000000   1.000000
   14       -3.225264      1.124483   1.000000   1.000000
   15       -3.225264      1.124484   1.000000   1.000000
   16       -1.608140      1.469700   1.000000   1.000000
   17       -0.922457      1.540848   1.000000   1.000000
   18       -0.922457      1.803522   1.000000   1.000000
   19        1.137723      1.803522   1.000000   1.000000
   20        1.137723      3.839697   1.000000   0.000000
   21        1.347416      3.884481   1.000000   0.000000
   22        1.505181      3.884482   1.000000   0.000000
   23        1.938788      4.389468   1.000222   0.000000
   24        1.938788      4.389468   1.038540   0.000000
   25        8.389677      8.443170   0.000000   0.000000
   26        8.389698      8.443191   0.000000   0.000000
   27        8.884026      9.057994   0.000000   0.000000
   28       10.634700     10.892778   0.000000   0.000000
 
  0.2500000E+00  0.8333333E-01  0.8333333E-01  0.1111111E+00
    1      -54.690841    -50.364708   1.000000   1.000000
    2      -54.690312    -50.363799   1.000000   1.000000
    3      -54.690140    -50.363679   1.000000   1.000000
    4      -30.077900    -30.074550   1.000000   1.000000
    5      -15.311012    -15.171080   1.000000   1.000000
    6      -14.231704    -13.977231   1.000000   1.000000
    7      -14.139294    -13.772142   1.000000   1.000000
    8      -12.114704    -12.100428   1.000000   1.000000
    9      -12.073137    -12.055951   1.000000   1.000000
   10      -11.882191    -11.848472   1.000000   1.000000
   11       -4.505114     -1.891663   1.000000   1.000000
   12       -4.489381     -1.291861   1.000000   1.000000
   13       -4.383040     -1.259123   1.000000   1.000000
   14       -4.367912      0.427176   1.000000   1.000000
   15       -3.221277      0.520499   1.000000   1.000000
   16       -1.620201      1.046034   1.000000   1.000000
   17       -0.854271      1.418433   1.000000   1.000000
   18       -0.083243      1.489125   1.000000   1.000000
   19        0.798648      1.624953   1.000000   1.000000
   20        1.091839      3.892986   1.000000   0.000000
   21        1.134801      4.316393   1.000000   0.000000
   22        1.366241      4.404857   1.000000   0.000000
   23        1.828416      4.480588   1.002604   0.000000
   24        2.071538      5.238360   0.954580   0.000000
   25        9.070539      9.146364   0.000000   0.000000
   26        9.138666      9.197047   0.000000   0.000000
   27        9.881437     10.044302   0.000000   0.000000
   28       10.894040     10.959478   0.000000   0.000000
 
  0.4166667E+00  0.8333333E-01  0.8333333E-01  0.1111111E+00
    1      -54.691468    -50.365624   1.000000   1.000000
    2      -54.690298    -50.363759   1.000000   1.000000
    3      -54.690169    -50.363674   1.000000   1.000000
    4      -30.068475    -30.065197   1.000000   1.000000
    5      -15.332238    -15.171092   1.000000   1.000000
    6      -14.207646    -14.069838   1.000000   1.000000
    7      -14.113837    -13.742371   1.000000   1.000000
    8      -12.111477    -12.099822   1.000000   1.000000
    9      -12.038322    -12.025697   1.000000   1.000000
   10      -11.724602    -11.682695   1.000000   1.000000
   11       -5.194166     -2.238116   1.000000   1.000000
   12       -4.612039     -1.261600   1.000000   1.000000
   13       -4.586223     -1.211496   1.000000   1.000000
   14       -4.384005     -0.251578   1.000000   1.000000
   15       -3.220517      0.115851   1.000000   1.000000
   16       -1.537738      0.871904   1.000000   1.000000
   17       -0.819181      1.169181   1.000000   1.000000
   18       -0.026483      1.231398   1.000000   1.000000
   19        0.554281      1.484505   1.000000   1.000000
   20        0.998770      3.919635   1.000000   0.000000
   21        1.347045      4.364682   1.000000   0.000000
   22        1.438421      4.860701   1.000000   0.000000
   23        1.634651      4.879997   1.004812   0.000000
   24        2.043586      5.791056   0.846908   0.000000
   25        9.826613      9.909708   0.000000   0.000000
   26       10.006452     10.067872   0.000000   0.000000
   27       10.897304     10.929806   0.000000   0.000000
   28       11.382567     11.468104   0.000000   0.000000
 
  0.2500000E+00  0.2500000E+00  0.8333333E-01  0.1111111E+00
    1      -54.691001    -50.364798   1.000000   1.000000
    2      -54.690805    -50.364644   1.000000   1.000000
    3      -54.690157    -50.363658   1.000000   1.000000
    4      -30.069054    -30.065767   1.000000   1.000000
    5      -15.191021    -15.056953   1.000000   1.000000
    6      -14.312150    -14.086377   1.000000   1.000000
    7      -14.138412    -13.825485   1.000000   1.000000
    8      -12.101920    -12.087804   1.000000   1.000000
    9      -12.000698    -11.959806   1.000000   1.000000
   10      -11.854491    -11.834672   1.000000   1.000000
   11       -4.654295     -2.195469   1.000000   1.000000
   12       -4.596517     -1.389524   1.000000   1.000000
   13       -4.511730     -1.184304   1.000000   1.000000
   14       -4.498093     -0.417226   1.000000   1.000000
   15       -4.033436      0.391033   1.000000   1.000000
   16       -1.724261      0.545933   1.000000   1.000000
   17       -0.362206      1.319121   1.000000   1.000000
   18        0.428919      1.378386   1.000000   1.000000
   19        0.504177      1.853432   1.000000   1.000487
   20        0.746817      4.357232   1.000000   0.000000
   21        1.056637      4.465499   1.000000   0.000000
   22        1.573890      4.583477   1.000000   0.000000
   23        1.762939      4.786772   1.025699   0.000000
   24        2.599400      5.845168   0.176910   0.000000
   25        9.500697      9.602328   0.000000   0.000000
   26        9.864222      9.929019   0.000000   0.000000
   27       10.289066     10.388874   0.000000   0.000000
   28       11.308354     11.494695   0.000000   0.000000
 
  0.4166667E+00  0.2500000E+00  0.8333333E-01  0.2222222E+00
    1      -54.691310    -50.365496   1.000000   1.000000
    2      -54.690800    -50.364607   1.000000   1.000000
    3      -54.690116    -50.363598   1.000000   1.000000
    4      -30.060180    -30.056953   1.000000   1.000000
    5      -15.103614    -14.950396   1.000000   1.000000
    6      -14.332033    -14.197952   1.000000   1.000000
    7      -14.136688    -13.833611   1.000000   1.000000
    8      -12.107930    -12.096158   1.000000   1.000000
    9      -11.945058    -11.923762   1.000000   1.000000
   10      -11.806484    -11.773305   1.000000   1.000000
   11       -5.237859     -2.504646   1.000000   1.000000
   12       -4.794175     -1.451636   1.000000   1.000000
   13       -4.614031     -1.081652   1.000000   1.000000
   14       -4.518002     -1.012230   1.000000   1.000000
   15       -4.206766      0.003084   1.000000   1.000000
   16       -1.624524      0.524874   1.000000   1.000000
   17       -0.153335      1.059474   1.000000   1.000000
   18        0.039686      1.278490   1.000000   1.000000
   19        0.589647      1.953537   1.000000   1.013220
   20        0.759582      4.421992   1.000000   0.000000
   21        1.225751      4.800626   1.000000   0.000000
   22        1.550508      4.873960   1.000000   0.000000
   23        1.832501      4.930869   1.048339   0.000000
   24        2.933653      6.454404  -0.022245   0.000000
   25       10.156090     10.251231   0.000000   0.000000
   26       10.647452     10.718385   0.000000   0.000000
   27       10.902616     10.967751   0.000000   0.000000
   28       11.452113     11.557123   0.000000   0.000000
 
  0.4166667E+00  0.4166667E+00  0.8333333E-01  0.1111111E+00
    1      -54.691480    -50.365595   1.000000   1.000000
    2      -54.691390    -50.365530   1.000000   1.000000
    3      -54.690166    -50.363590   1.000000   1.000000
    4      -30.051870    -30.048701   1.000000   1.000000
    5      -14.780164    -14.620269   1.000000   1.000000
    6      -14.441519    -14.321297   1.000000   1.000000
    7      -14.267775    -14.041294   1.000000   1.000000
    8      -12.073640    -12.065544   1.000000   1.000000
    9      -11.895164    -11.866909   1.000000   1.000000
   10      -11.861657    -11.839368   1.000000   1.000000
   11       -5.416549     -2.841440   1.000000   1.000000
   12       -4.971912     -1.602242   1.000000   1.000000
   13       -4.856006     -1.544727   1.000000   1.000000
   14       -4.638452     -0.804810   1.000000   1.000000
   15       -4.634355     -0.088226   1.000000   1.000000
   16       -1.531335      0.044256   1.000000   1.000000
   17       -0.122510      1.125709   1.000000   1.000000
   18        0.365326      1.198060   1.000000   1.000000
   19        0.703756      2.387723   1.000000   0.946317
   20        0.725894      4.834450   1.000000   0.000000
   21        1.155349      4.876919   1.000000   0.000000
   22        1.304884      4.954334   1.000000   0.000000
   23        2.182403      5.076483   1.020694   0.000000
   24        3.641972      7.181611   0.000000   0.000000
   25       10.428147     10.466643   0.000000   0.000000
   26       10.698307     10.778283   0.000000   0.000000
   27       11.528506     11.641370   0.000000   0.000000
   28       11.594883     11.682829   0.000000   0.000000
 
  0.2500000E+00  0.2500000E+00  0.2500000E+00  0.3703704E-01
    1      -54.691053    -50.364800   1.000000   1.000000
    2      -54.691053    -50.364800   1.000000   1.000000
    3      -54.690988    -50.364739   1.000000   1.000000
    4      -30.060679    -30.057454   1.000000   1.000000
    5      -15.040214    -14.918148   1.000000   1.000000
    6      -14.226813    -13.990271   1.000000   1.000000
    7      -14.226813    -13.990271   1.000000   1.000000
    8      -12.106815    -12.075481   1.000000   1.000000
    9      -12.106815    -12.075481   1.000000   1.000000
   10      -11.816319    -11.799458   1.000000   1.000000
   11       -4.695493     -2.453624   1.000000   1.000000
   12       -4.626533     -1.353989   1.000000   1.000000
   13       -4.626533     -1.353989   1.000000   1.000000
   14       -4.584172     -0.508584   1.000000   1.000000
   15       -4.584172     -0.187638   1.000000   1.000000
   16       -2.529101     -0.187638   1.000000   1.000000
   17        0.231767      1.637372   1.000000   1.000000
   18        0.564208      1.637372   1.000000   1.000000
   19        0.564208      1.994178   1.000000   1.011714
   20        0.915686      4.592307   1.000000   0.000000
   21        0.915687      4.670960   1.000000   0.000000
   22        1.795224      4.670964   1.000000   0.000000
   23        2.536642      5.826964   0.609905   0.000000
   24        2.536642      5.826970   0.082071   0.000000
   25        9.984982     10.088447   0.000000   0.000000
   26        9.990068     10.091139   0.000000   0.000000
   27       10.206245     10.280990   0.000000   0.000000
   28       11.409001     11.505203   0.000000   0.000000
 
  0.4166667E+00  0.2500000E+00  0.2500000E+00  0.1111111E+00
    1      -54.691347    -50.365501   1.000000   1.000000
    2      -54.690857    -50.364612   1.000000   1.000000
    3      -54.690731    -50.364541   1.000000   1.000000
    4      -30.052241    -30.049087   1.000000   1.000000
    5      -14.887043    -14.748875   1.000000   1.000000
    6      -14.304715    -14.170616   1.000000   1.000000
    7      -14.129146    -13.877489   1.000000   1.000000
    8      -12.222963    -12.205052   1.000000   1.000000
    9      -12.007767    -11.978574   1.000000   1.000000
   10      -11.879225    -11.858758   1.000000   1.000000
   11       -5.263430     -2.755229   1.000000   1.000000
   12       -4.813631     -1.453936   1.000000   1.000000
   13       -4.709574     -1.307621   1.000000   1.000000
   14       -4.630549     -1.004371   1.000000   1.000000
   15       -4.595654     -0.540584   1.000000   1.000000
   16       -2.714370     -0.166857   1.000000   1.000000
   17        0.102508      1.638558   1.000000   1.000000
   18        0.517199      1.752023   1.000000   1.000000
   19        0.608664      2.082740   1.000000   1.088107
   20        0.970587      4.688877   1.000000   0.000000
   21        1.562464      4.945354   1.000000   0.000000
   22        1.952252      4.980652   1.000000   0.000000
   23        2.428563      5.793032   0.562544   0.000000
   24        3.050939      6.606327  -0.017751   0.000000
   25       10.356902     10.443043   0.000000   0.000000
   26       10.494178     10.576157   0.000000   0.000000
   27       10.528645     10.635194   0.000000   0.000000
   28       11.135640     11.185474   0.000000   0.000000
 
  0.4166667E+00  0.4166667E+00  0.2500000E+00  0.1111111E+00
    1      -54.691452    -50.365563   1.000000   1.000000
    2      -54.691256    -50.365413   1.000000   1.000000
    3      -54.690791    -50.364547   1.000000   1.000000
    4      -30.044261    -30.041175   1.000000   1.000000
    5      -14.581679    -14.447256   1.000000   1.000000
    6      -14.305740    -14.179191   1.000000   1.000000
    7      -14.179786    -13.989251   1.000000   1.000000
    8      -12.241574    -12.225144   1.000000   1.000000
    9      -12.099754    -12.072999   1.000000   1.000000
   10      -12.002749    -11.981551   1.000000   1.000000
   11       -5.414706     -3.101142   1.000000   1.000000
   12       -5.044906     -1.591778   1.000000   1.000000
   13       -4.897091     -1.295407   1.000000   1.000000
   14       -4.730701     -1.226540   1.000000   1.000000
   15       -4.726288     -0.552147   1.000000   1.000000
   16       -3.053889     -0.544115   1.000000   1.000000
   17        0.160753      1.849106   1.000000   1.000000
   18        0.566317      1.896753   1.000000   1.000000
   19        0.587841      2.422961   1.000000   0.506833
   20        1.580979      4.998154   1.000000   0.000000
   21        1.713207      5.016923   1.000000   0.000000
   22        2.220832      5.137581   1.000000   0.000000
   23        2.530884      6.120771   0.178141   0.000000
   24        3.635595      7.174170   0.000000   0.000000
   25       10.071503     10.145851   0.000000   0.000000
   26       10.406364     10.503969   0.000000   0.000000
   27       10.464306     10.575384   0.000000   0.000000
   28       11.301525     11.361270   0.000000   0.000000
 
  0.4166667E+00  0.4166667E+00  0.4166667E+00  0.3703704E-01
    1      -54.691429    -50.365532   1.000000   1.000000
    2      -54.691429    -50.365532   1.000000   1.000000
    3      -54.691297    -50.365417   1.000000   1.000000
    4      -30.036625    -30.033624   1.000000   1.000000
    5      -14.313436    -14.195709   1.000000   1.000000
    6      -14.141613    -14.004954   1.000000   1.000000
    7      -14.141613    -14.004954   1.000000   1.000000
    8      -12.331440    -12.310256   1.000000   1.000000
    9      -12.331440    -12.310256   1.000000   1.000000
   10      -12.218859    -12.197012   1.000000   1.000000
   11       -5.412824     -3.468564   1.000000   1.000000
   12       -5.412824     -1.580314   1.000000   1.000000
   13       -4.843028     -1.580314   1.000000   1.000000
   14       -4.807564     -0.956245   1.000000   1.000000
   15       -4.807564     -0.815502   1.000000   1.000000
   16       -3.711733     -0.815502   1.000000   1.000000
   17        0.440628      2.372722   1.000000   1.000000
   18        0.561047      2.372722   1.000000   1.000000
   19        0.561048      2.492074   1.000000   0.131009
   20        2.158752      5.191430   1.000000   0.000000
   21        2.158752      5.207318   1.000000   0.000000
   22        2.286351      5.207318   1.000000   0.000000
   23        3.618747      7.159979   0.000000   0.000000
   24        3.618747      7.159980   0.000000   0.000000
   25        9.643340      9.735666   0.000000   0.000000
   26        9.733613      9.818818   0.000000   0.000000
   27        9.733707      9.818893   0.000000   0.000000
   28       12.068016     12.097974   0.000000   0.000000
