 running on    8 total cores
 distrk:  each k-point on    8 cores,    1 groups
 distr:  one band on    4 cores,    2 groups
 using from now: INCAR     
 vasp.5.4.1 24Jun15 (build Jan 06 2016 13:10:00) complex                        
  
 POSCAR found type information on POSCAR  Sr Fe O 
 POSCAR found :  3 types and       5 ions
 scaLAPACK will be used

 ----------------------------------------------------------------------------- 
|                                                                             |
|  ADVICE TO THIS USER RUNNING 'VASP/VAMP'   (HEAR YOUR MASTER'S VOICE ...):  |
|                                                                             |
|      You have a (more or less) 'small supercell' and for smaller cells      |
|      it is recommended  to use the reciprocal-space projection scheme!      |
|      The real space optimization is not  efficient for small cells and it   |
|      is also less accurate ...                                              |
|      Therefore set LREAL=.FALSE. in the  INCAR file                         |
|                                                                             |
 ----------------------------------------------------------------------------- 

 LDA part: xc-table for Ceperly-Alder, standard interpolation
 POSCAR found type information on POSCAR  Sr Fe O 
 POSCAR found :  3 types and       5 ions
 POSCAR, INCAR and KPOINTS ok, starting setup
 WARNING: small aliasing (wrap around) errors must be expected
 FFT: planning ...
 WAVECAR not read
 entering main loop
       N       E                     dE             d eps       ncg     rms          rms(c)
DAV:   1     0.311278556765E+03    0.31128E+03   -0.17320E+04  1232   0.114E+03
DAV:   2    -0.184498171004E+02   -0.32973E+03   -0.32002E+03  1140   0.383E+02
DAV:   3    -0.364932055909E+02   -0.18043E+02   -0.17844E+02  1556   0.928E+01
DAV:   4    -0.370680716720E+02   -0.57487E+00   -0.57151E+00  1724   0.125E+01
DAV:   5    -0.370773452103E+02   -0.92735E-02   -0.92437E-02  1512   0.130E+00    0.287E+01
RMM:   6    -0.444858138736E+02   -0.74085E+01   -0.13574E+02  1244   0.913E+01    0.468E+01
RMM:   7    -0.322282944013E+02    0.12258E+02   -0.35010E+01  1135   0.417E+01    0.172E+01
  WARNING: DENTET: can't reach specified precision
  Number of Electrons is NELECT =   41.9986670249258     
RMM:   8    -0.317757162477E+02    0.45258E+00   -0.66963E-01  1199   0.598E+00BRMIX: very serious problems
 the old and the new charge density differ
 old charge density:    41.99998 new   41.99865
    0.109E+01
RMM:   9    -0.310047998354E+02    0.77092E+00   -0.15698E+00  1156   0.865E+00BRMIX: very serious problems
 the old and the new charge density differ
 old charge density:    41.99865 new   41.99998
    0.498E+00
RMM:  10    -0.310184196988E+02   -0.13620E-01   -0.83309E-01  1161   0.600E+00    0.191E+00
RMM:  11    -0.310396990626E+02   -0.21279E-01   -0.41451E-02  1141   0.133E+00    0.147E+00
RMM:  12    -0.310479524804E+02   -0.82534E-02   -0.21680E-02  1061   0.910E-01    0.992E-01
RMM:  13    -0.310497084927E+02   -0.17560E-02   -0.71194E-02  1071   0.172E+00    0.409E-01
RMM:  14    -0.310487462347E+02    0.96226E-03   -0.28618E-03   781   0.332E-01
   1 F= -.31048746E+02 E0= -.31048746E+02  d E =-.310487E+02  mag=     4.8379
 BRION: g(F)=  0.000E+00 g(S)=  0.000E+00
 reached required accuracy - stopping structural energy minimisation
 running on    8 total cores
 distrk:  each k-point on    8 cores,    1 groups
 distr:  one band on    4 cores,    2 groups
 using from now: INCAR     
 vasp.5.4.1 24Jun15 (build Jan 06 2016 13:10:00) complex                        
  
 POSCAR found type information on POSCAR  Sr Fe O 
 POSCAR found :  3 types and       5 ions
 scaLAPACK will be used

 ----------------------------------------------------------------------------- 
|                                                                             |
|  ADVICE TO THIS USER RUNNING 'VASP/VAMP'   (HEAR YOUR MASTER'S VOICE ...):  |
|                                                                             |
|      You have a (more or less) 'small supercell' and for smaller cells      |
|      it is recommended  to use the reciprocal-space projection scheme!      |
|      The real space optimization is not  efficient for small cells and it   |
|      is also less accurate ...                                              |
|      Therefore set LREAL=.FALSE. in the  INCAR file                         |
|                                                                             |
 ----------------------------------------------------------------------------- 

 LDA part: xc-table for Ceperly-Alder, standard interpolation
 POSCAR found type information on POSCAR  Sr Fe O 
 POSCAR found :  3 types and       5 ions
 POSCAR, INCAR and KPOINTS ok, starting setup
 WARNING: small aliasing (wrap around) errors must be expected
 FFT: planning ...
 WAVECAR not read
 WARNING: random wavefunctions but no delay for mixing, default for NELMDL
 entering main loop
       N       E                     dE             d eps       ncg     rms          rms(c)
DAV:   1     0.324470161439E+03    0.32447E+03   -0.17283E+04  1216   0.118E+03
DAV:   2    -0.188352425847E+02   -0.34331E+03   -0.33357E+03  1152   0.397E+02
DAV:   3    -0.370715016388E+02   -0.18236E+02   -0.18052E+02  1512   0.956E+01
DAV:   4    -0.376416001398E+02   -0.57010E+00   -0.56627E+00  1752   0.125E+01
DAV:   5    -0.376516711270E+02   -0.10071E-01   -0.10039E-01  1452   0.138E+00    0.269E+01
RMM:   6    -0.435263125754E+02   -0.58746E+01   -0.12659E+02  1235   0.886E+01    0.420E+01
RMM:   7    -0.321910380044E+02    0.11335E+02   -0.32254E+01  1158   0.400E+01    0.169E+01
RMM:   8    -0.321238407830E+02    0.67197E-01   -0.59829E-01  1208   0.588E+00    0.119E+01
RMM:   9    -0.315656550064E+02    0.55819E+00   -0.27409E+00  1154   0.114E+01    0.286E+00
RMM:  10    -0.314627268241E+02    0.10293E+00   -0.14350E-01  1210   0.256E+00    0.173E+00
RMM:  11    -0.314674043695E+02   -0.46775E-02   -0.12722E-01  1124   0.248E+00    0.594E-01
RMM:  12    -0.314712620417E+02   -0.38577E-02   -0.78789E-03   981   0.591E-01    0.531E-01
RMM:  13    -0.314692132063E+02    0.20488E-02   -0.80409E-03   951   0.630E-01    0.134E-01
RMM:  14    -0.314696998298E+02   -0.48662E-03   -0.14976E-03   685   0.208E-01
   1 F= -.31469700E+02 E0= -.31469700E+02  d E =-.314697E+02  mag=     4.1502
 BRION: g(F)=  0.000E+00 g(S)=  0.000E+00
 reached required accuracy - stopping structural energy minimisation
