       N       E                     dE             d eps       ncg     rms          rms(c)
DAV:   1     0.324470161439E+03    0.32447E+03   -0.17283E+04  1216   0.118E+03
DAV:   2    -0.188352425847E+02   -0.34331E+03   -0.33357E+03  1152   0.397E+02
DAV:   3    -0.370715016388E+02   -0.18236E+02   -0.18052E+02  1512   0.956E+01
DAV:   4    -0.376416001398E+02   -0.57010E+00   -0.56627E+00  1752   0.125E+01
DAV:   5    -0.376516711270E+02   -0.10071E-01   -0.10039E-01  1452   0.138E+00    0.269E+01
RMM:   6    -0.435263125754E+02   -0.58746E+01   -0.12659E+02  1235   0.886E+01    0.420E+01
RMM:   7    -0.321910380044E+02    0.11335E+02   -0.32254E+01  1158   0.400E+01    0.169E+01
RMM:   8    -0.321238407830E+02    0.67197E-01   -0.59829E-01  1208   0.588E+00    0.119E+01
RMM:   9    -0.315656550064E+02    0.55819E+00   -0.27409E+00  1154   0.114E+01    0.286E+00
RMM:  10    -0.314627268241E+02    0.10293E+00   -0.14350E-01  1210   0.256E+00    0.173E+00
RMM:  11    -0.314674043695E+02   -0.46775E-02   -0.12722E-01  1124   0.248E+00    0.594E-01
RMM:  12    -0.314712620417E+02   -0.38577E-02   -0.78789E-03   981   0.591E-01    0.531E-01
RMM:  13    -0.314692132063E+02    0.20488E-02   -0.80409E-03   951   0.630E-01    0.134E-01
RMM:  14    -0.314696998298E+02   -0.48662E-03   -0.14976E-03   685   0.208E-01
   1 F= -.31469700E+02 E0= -.31469700E+02  d E =-.314697E+02  mag=     4.1502
