<?xml version="1.0" encoding="ISO-8859-1"?>
<modeling>
 <generator>
  <i name="program" type="string">vasp </i>
  <i name="version" type="string">5.4.1  </i>
  <i name="subversion" type="string">24Jun15 (build Jan 06 2016 13:10:00) complex                          parallel </i>
  <i name="platform" type="string">IFC91_ompi </i>
  <i name="date" type="string">2016 02 25 </i>
  <i name="time" type="string">16:55:22 </i>
 </generator>
 <incar>
  <i type="string" name="PREC">normal</i>
  <i type="string" name="ALGO"> Fast</i>
  <i type="int" name="ISPIN">     2</i>
  <i type="int" name="NELM">   100</i>
  <i type="int" name="IBRION">     1</i>
  <i name="EDIFF">      0.00100000</i>
  <i name="EDIFFG">     -0.01000000</i>
  <i type="int" name="NSW">    99</i>
  <i type="int" name="ISIF">     0</i>
  <i name="ENCUT">    300.00000000</i>
  <i type="string" name="LREAL">Auto</i>
  <i type="int" name="ISMEAR">    -5</i>
  <i name="SIGMA">      0.05000000</i>
  <i type="int" name="LMAXMIX">     4</i>
  <i type="logical" name="LWAVE"> F  </i>
  <v type="int" name="KPOINT_BSE">    -1     0     0     0</v>
  <i type="int" name="NELM">   100</i>
  <i type="logical" name="LDAU"> T  </i>
  <v type="int" name="LDAUTYPE">     2</v>
  <v type="int" name="LDAUL">     0     2     0</v>
  <v name="LDAUU">      0.00000000      5.30000000      0.00000000</v>
  <v name="LDAUJ">      0.00000000      0.00000000      0.00000000</v>
  <i type="int" name="LDAUPRINT">     1</i>
 </incar>
 <kpoints>
  <generation param="Monkhorst-Pack">
   <v type="int" name="divisions">       6        6        6 </v>
   <v name="usershift">      0.00000000       0.00000000       0.00000000 </v>
   <v name="genvec1">      0.16666667       0.00000000       0.00000000 </v>
   <v name="genvec2">      0.00000000       0.16666667       0.00000000 </v>
   <v name="genvec3">      0.00000000       0.00000000       0.16666667 </v>
   <v name="shift">      0.50000000       0.50000000       0.50000000 </v>
  </generation>
  <varray name="kpointlist" >
   <v>       0.08333333       0.08333333       0.08333333 </v>
   <v>       0.25000000       0.08333333       0.08333333 </v>
   <v>       0.41666667       0.08333333       0.08333333 </v>
   <v>       0.25000000       0.25000000       0.08333333 </v>
   <v>       0.41666667       0.25000000       0.08333333 </v>
   <v>       0.41666667       0.41666667       0.08333333 </v>
   <v>       0.25000000       0.25000000       0.25000000 </v>
   <v>       0.41666667       0.25000000       0.25000000 </v>
   <v>       0.41666667       0.41666667       0.25000000 </v>
   <v>       0.41666667       0.41666667       0.41666667 </v>
  </varray>
  <varray name="weights" >
   <v>       0.03703704 </v>
   <v>       0.11111111 </v>
   <v>       0.11111111 </v>
   <v>       0.11111111 </v>
   <v>       0.22222222 </v>
   <v>       0.11111111 </v>
   <v>       0.03703704 </v>
   <v>       0.11111111 </v>
   <v>       0.11111111 </v>
   <v>       0.03703704 </v>
  </varray>
  <varray name="tetrahedronlist"  type="int" >
   <v type="int" >       24        1        2        2        4 </v>
   <v type="int" >       18        2        2        4        4 </v>
   <v type="int" >       12        2        4        4        7 </v>
   <v type="int" >       12        2        3        4        5 </v>
   <v type="int" >       24        2        4        4        5 </v>
   <v type="int" >       12        4        4        5        7 </v>
   <v type="int" >       24        3        4        5        5 </v>
   <v type="int" >       24        4        5        5        8 </v>
   <v type="int" >       24        4        5        7        8 </v>
   <v type="int" >       30        3        3        5        5 </v>
   <v type="int" >       36        3        5        5        5 </v>
   <v type="int" >       12        5        5        5        8 </v>
   <v type="int" >        6        5        5        8        8 </v>
   <v type="int" >       18        1        1        2        2 </v>
   <v type="int" >       24        1        2        2        2 </v>
   <v type="int" >       12        2        2        2        4 </v>
   <v type="int" >       12        4        5        6        7 </v>
   <v type="int" >       12        5        6        7        8 </v>
   <v type="int" >       12        6        7        8        9 </v>
   <v type="int" >       24        5        5        6        8 </v>
   <v type="int" >       12        5        6        6        8 </v>
   <v type="int" >       12        6        6        8        9 </v>
   <v type="int" >       12        5        6        8        8 </v>
   <v type="int" >       12        6        8        8        9 </v>
   <v type="int" >       12        6        8        9        9 </v>
   <v type="int" >       12        5        6        8        9 </v>
   <v type="int" >       12        5        7        8        8 </v>
   <v type="int" >       24        5        8        8        9 </v>
   <v type="int" >       12        2        3        4        7 </v>
   <v type="int" >       12        3        4        5        7 </v>
   <v type="int" >       12        3        5        7        8 </v>
   <v type="int" >       12        2        2        3        4 </v>
   <v type="int" >       12        2        3        3        4 </v>
   <v type="int" >       12        3        3        4        5 </v>
   <v type="int" >       12        2        3        4        4 </v>
   <v type="int" >       12        3        4        4        5 </v>
   <v type="int" >       12        6        6        6        9 </v>
   <v type="int" >       12        6        6        9        9 </v>
   <v type="int" >       12        6        9        9        9 </v>
   <v type="int" >       12        5        5        6        9 </v>
   <v type="int" >       12        5        6        6        9 </v>
   <v type="int" >       12        5        6        9        9 </v>
   <v type="int" >       12        5        5        8        9 </v>
   <v type="int" >       12        5        8        9        9 </v>
   <v type="int" >       12        3        3        5        8 </v>
   <v type="int" >       12        3        5        5        8 </v>
   <v type="int" >       12        3        5        8        8 </v>
   <v type="int" >       24        3        3        3        5 </v>
   <v type="int" >       12        4        5        6        9 </v>
   <v type="int" >       12        4        5        8        9 </v>
   <v type="int" >       12        4        7        8        9 </v>
   <v type="int" >       12        2        3        5        8 </v>
   <v type="int" >       12        2        4        5        8 </v>
   <v type="int" >       12        2        4        7        8 </v>
   <v type="int" >       12        2        3        3        5 </v>
   <v type="int" >       12        2        2        3        5 </v>
   <v type="int" >       12        2        2        4        5 </v>
   <v type="int" >       12        2        3        5        5 </v>
   <v type="int" >       12        2        4        5        5 </v>
   <v type="int" >       12        1        2        4        7 </v>
   <v type="int" >       12        1        1        2        4 </v>
   <v type="int" >       12        1        2        4        4 </v>
   <v type="int" >       12        1        1        1        2 </v>
   <v type="int" >       12        7        8        8        9 </v>
   <v type="int" >       18        8        8        9        9 </v>
   <v type="int" >       24        8        9        9       10 </v>
   <v type="int" >       12        8        9        9        9 </v>
   <v type="int" >       24        9        9        9       10 </v>
   <v type="int" >       18        9        9       10       10 </v>
   <v type="int" >        6        4        4        5        5 </v>
   <v type="int" >       12        4        5        5        5 </v>
   <v type="int" >       36        5        5        5        6 </v>
   <v type="int" >       30        5        5        6        6 </v>
   <v type="int" >       12        9       10       10       10 </v>
   <v type="int" >       12        8        8        9       10 </v>
   <v type="int" >       12        8        9       10       10 </v>
   <v type="int" >       24        5        6        6        6 </v>
   <v type="int" >       12        7        8        9       10 </v>
   <v type="int" >       12        4        5        5        6 </v>
   <v type="int" >       12        4        4        5        6 </v>
   <v type="int" >       12        4        5        6        6 </v>
   <v type="int" >       12        2        2        2        3 </v>
   <v type="int" >       12        2        2        3        3 </v>
   <v type="int" >       12        2        3        3        3 </v>
   <v type="int" >        6       10       10       10       10 </v>
   <v type="int" >       18        6        6        6        6 </v>
   <v type="int" >       18        3        3        3        3 </v>
   <v type="int" >        6        1        1        1        1 </v>
  </varray>
  <i name="volumeweight">      0.00077160 </i>
 </kpoints>
 <parameters>
  <separator name="general" >
   <i type="string" name="SYSTEM">unknown system</i>
   <i type="logical" name="LCOMPAT"> F  </i>
  </separator>
  <separator name="electronic" >
   <i type="string" name="PREC">normal</i>
   <i name="ENMAX">    300.00000000</i>
   <i name="ENAUG">    578.34200000</i>
   <i name="EDIFF">      0.00100000</i>
   <i type="int" name="IALGO">    68</i>
   <i type="int" name="IWAVPR">    11</i>
   <i type="int" name="NBANDS">    28</i>
   <i name="NELECT">     42.00000000</i>
   <i type="int" name="TURBO">     0</i>
   <i type="int" name="IRESTART">     0</i>
   <i type="int" name="NREBOOT">     0</i>
   <i type="int" name="NMIN">     0</i>
   <i name="EREF">      0.00000000</i>
   <separator name="electronic smearing" >
    <i type="int" name="ISMEAR">    -5</i>
    <i name="SIGMA">      0.05000000</i>
    <i name="KSPACING">      0.50000000</i>
    <i type="logical" name="KGAMMA"> T  </i>
   </separator>
   <separator name="electronic projectors" >
    <i type="logical" name="LREAL"> T  </i>
    <v name="ROPT">     -0.00050000     -0.00050000     -0.00050000</v>
    <i type="int" name="LMAXPAW">  -100</i>
    <i type="int" name="LMAXMIX">     4</i>
    <i type="logical" name="NLSPLINE"> F  </i>
   </separator>
   <separator name="electronic startup" >
    <i type="int" name="ISTART">     0</i>
    <i type="int" name="ICHARG">     2</i>
    <i type="int" name="INIWAV">     1</i>
   </separator>
   <separator name="electronic spin" >
    <i type="int" name="ISPIN">     2</i>
    <i type="logical" name="LNONCOLLINEAR"> F  </i>
    <v name="MAGMOM">      1.00000000      1.00000000      1.00000000      1.00000000      1.00000000</v>
    <i name="NUPDOWN">     -1.00000000</i>
    <i type="logical" name="LSORBIT"> F  </i>
    <v name="SAXIS">      0.00000000      0.00000000      1.00000000</v>
    <i type="logical" name="LSPIRAL"> F  </i>
    <v name="QSPIRAL">      0.00000000      0.00000000      0.00000000</v>
    <i type="logical" name="LZEROZ"> F  </i>
   </separator>
   <separator name="electronic exchange-correlation" >
    <i type="logical" name="LASPH"> F  </i>
    <i type="logical" name="LMETAGGA"> F  </i>
   </separator>
   <separator name="electronic convergence" >
    <i type="int" name="NELM">   100</i>
    <i type="int" name="NELMDL">     0</i>
    <i type="int" name="NELMIN">     2</i>
    <i name="ENINI">    300.00000000</i>
    <separator name="electronic convergence detail" >
     <i type="logical" name="LDIAG"> T  </i>
     <i type="logical" name="LSUBROT"> F  </i>
     <i name="WEIMIN">      0.00100000</i>
     <i name="EBREAK">      0.00000893</i>
     <i name="DEPER">      0.30000000</i>
     <i type="int" name="NRMM">     4</i>
     <i name="TIME">      0.40000000</i>
    </separator>
   </separator>
   <separator name="electronic mixer" >
    <i name="AMIX">      0.40000000</i>
    <i name="BMIX">      1.00000000</i>
    <i name="AMIN">      0.10000000</i>
    <i name="AMIX_MAG">      1.60000000</i>
    <i name="BMIX_MAG">      1.00000000</i>
    <separator name="electronic mixer details" >
     <i type="int" name="IMIX">     4</i>
     <i type="logical" name="MIXFIRST"> F  </i>
     <i type="int" name="MAXMIX">   -45</i>
     <i name="WC">    100.00000000</i>
     <i type="int" name="INIMIX">     1</i>
     <i type="int" name="MIXPRE">     1</i>
     <i type="int" name="MREMOVE">     5</i>
    </separator>
   </separator>
   <separator name="electronic dipolcorrection" >
    <i type="logical" name="LDIPOL"> F  </i>
    <i type="logical" name="LMONO"> F  </i>
    <i type="int" name="IDIPOL">     0</i>
    <i name="EPSILON">      1.00000000</i>
    <v name="DIPOL">   -100.00000000   -100.00000000   -100.00000000</v>
    <i name="EFIELD">      0.00000000</i>
   </separator>
  </separator>
  <separator name="grids" >
   <i type="int" name="NGX">    18</i>
   <i type="int" name="NGY">    18</i>
   <i type="int" name="NGZ">    18</i>
   <i type="int" name="NGXF">    36</i>
   <i type="int" name="NGYF">    36</i>
   <i type="int" name="NGZF">    36</i>
   <i type="logical" name="ADDGRID"> F  </i>
  </separator>
  <separator name="ionic" >
   <i type="int" name="NSW">    99</i>
   <i type="int" name="IBRION">     1</i>
   <i type="int" name="ISIF">     0</i>
   <i name="PSTRESS">      0.00000000</i>
   <i name="EDIFFG">     -0.01000000</i>
   <i type="int" name="NFREE">     0</i>
   <i name="POTIM">      0.50000000</i>
   <i name="SMASS">     -3.00000000</i>
   <i name="SCALEE">      1.00000000</i>
  </separator>
  <separator name="ionic md" >
   <i name="TEBEG">      0.00010000</i>
   <i name="TEEND">      0.00010000</i>
   <i type="int" name="NBLOCK">     1</i>
   <i type="int" name="KBLOCK">    99</i>
   <i type="int" name="NPACO">   256</i>
   <i name="APACO">     16.00000000</i>
  </separator>
  <separator name="symmetry" >
   <i type="int" name="ISYM">     2</i>
   <i name="SYMPREC">      0.00001000</i>
  </separator>
  <separator name="dos" >
   <i type="logical" name="LORBIT"> F  </i>
   <v name="RWIGS">     -1.00000000     -1.00000000     -1.00000000</v>
   <i type="int" name="NEDOS">   301</i>
   <i name="EMIN">     10.00000000</i>
   <i name="EMAX">    -10.00000000</i>
   <i name="EFERMI">      0.00000000</i>
  </separator>
  <separator name="writing" >
   <i type="int" name="NWRITE">     2</i>
   <i type="logical" name="LWAVE"> F  </i>
   <i type="logical" name="LCHARG"> T  </i>
   <i type="logical" name="LPARD"> F  </i>
   <i type="logical" name="LVTOT"> F  </i>
   <i type="logical" name="LVHAR"> F  </i>
   <i type="logical" name="LELF"> F  </i>
   <i type="logical" name="LOPTICS"> F  </i>
   <v name="STM">      0.00000000      0.00000000      0.00000000      0.00000000      0.00000000      0.00000000      0.00000000</v>
  </separator>
  <separator name="performance" >
   <i type="int" name="NPAR">     2</i>
   <i type="int" name="NSIM">     4</i>
   <i type="int" name="NBLK">    -1</i>
   <i type="logical" name="LPLANE"> T  </i>
   <i type="logical" name="LSCALAPACK"> T  </i>
   <i type="logical" name="LSCAAWARE"> F  </i>
   <i type="logical" name="LSCALU"> F  </i>
   <i type="logical" name="LASYNC"> F  </i>
   <i type="logical" name="LORBITALREAL"> F  </i>
  </separator>
  <separator name="miscellaneous" >
   <i type="int" name="IDIOT">     3</i>
   <i type="logical" name="LMUSIC"> F  </i>
   <v name="POMASS">     87.62000000     55.84700000     16.00000000</v>
   <v name="DARWINR">      0.00000000      0.00000000      0.00000000</v>
   <v name="DARWINV">      1.00000000      1.00000000      1.00000000</v>
   <i type="logical" name="LCORR"> T  </i>
  </separator>
  <i type="logical" name="GGA_COMPAT"> T  </i>
  <i type="logical" name="LBERRY"> F  </i>
  <i type="int" name="ICORELEVEL">     0</i>
  <i type="logical" name="LDAU"> T  </i>
  <v type="int" name="LDAUTYPE">     2</v>
  <v type="int" name="LDAUL">     0</v>
  <v name="LDAUU">      0.00000000</v>
  <v name="LDAUJ">      0.00000000</v>
  <i type="int" name="LDAUPRINT">     1</i>
  <i type="int" name="I_CONSTRAINED_M">     0</i>
  <separator name="electronic exchange-correlation" >
   <i type="string" name="GGA">--</i>
   <i type="int" name="VOSKOWN">     0</i>
   <i type="logical" name="LHFCALC"> F  </i>
   <i type="string" name="PRECFOCK"></i>
   <i type="logical" name="LSYMGRAD"> F  </i>
   <i type="logical" name="LHFONE"> F  </i>
   <i type="logical" name="LRHFCALC"> F  </i>
   <i type="logical" name="LTHOMAS"> F  </i>
   <i type="logical" name="LMODELHF"> F  </i>
   <i name="ENCUT4O">     -1.00000000</i>
   <i type="int" name="EXXOEP">     0</i>
   <i type="int" name="FOURORBIT">     0</i>
   <i name="AEXX">      0.00000000</i>
   <i name="HFALPHA">      0.00000000</i>
   <i name="MCALPHA">      0.00000000</i>
   <i name="ALDAX">      1.00000000</i>
   <i name="AGGAX">      1.00000000</i>
   <i name="ALDAC">      1.00000000</i>
   <i name="AGGAC">      1.00000000</i>
   <i type="int" name="NKREDX">     1</i>
   <i type="int" name="NKREDY">     1</i>
   <i type="int" name="NKREDZ">     1</i>
   <i type="logical" name="SHIFTRED"> F  </i>
   <i type="logical" name="ODDONLY"> F  </i>
   <i type="logical" name="EVENONLY"> F  </i>
   <i type="int" name="LMAXFOCK">     0</i>
   <i type="int" name="NMAXFOCKAE">     0</i>
   <i type="logical" name="LFOCKAEDFT"> F  </i>
   <i name="HFSCREEN">      0.00000000</i>
   <i name="HFSCREENC">      0.00000000</i>
   <i type="int" name="NBANDSGWLOW">     0</i>
  </separator>
  <separator name="vdW DFT" >
   <i type="logical" name="LUSE_VDW"> F  </i>
   <i name="Zab_VDW">     -0.84910000</i>
   <i name="PARAM1">      0.12340000</i>
   <i name="PARAM2">      1.00000000</i>
   <i name="PARAM3">      0.00000000</i>
  </separator>
  <separator name="model GW" >
   <i type="int" name="MODEL_GW">     0</i>
   <i name="MODEL_EPS0">      7.24385496</i>
   <i name="MODEL_ALPHA">      1.00000000</i>
  </separator>
  <separator name="linear response parameters" >
   <i type="logical" name="LEPSILON"> F  </i>
   <i type="logical" name="LRPA"> F  </i>
   <i type="logical" name="LNABLA"> F  </i>
   <i type="logical" name="LVEL"> F  </i>
   <i type="int" name="KINTER">     0</i>
   <i name="CSHIFT">      0.10000000</i>
   <i name="OMEGAMAX">     -1.00000000</i>
   <i name="DEG_THRESHOLD">      0.00200000</i>
  </separator>
  <separator name="orbital magnetization" >
   <i type="logical" name="NUCIND"> F  </i>
   <v name="MAGPOS">      0.00000000      0.00000000      0.00000000</v>
   <i type="logical" name="LNICSALL"> T  </i>
   <i type="logical" name="ORBITALMAG"> F  </i>
   <i type="logical" name="LMAGBLOCH"> F  </i>
   <i type="logical" name="LCHIMAG"> F  </i>
   <i type="logical" name="LGAUGE"> T  </i>
   <i type="int" name="MAGATOM">     0</i>
   <v name="MAGDIPOL">      0.00000000      0.00000000      0.00000000</v>
   <v name="AVECCONST">      0.00000000      0.00000000      0.00000000</v>
  </separator>
  <separator name="response functions" >
   <i type="logical" name="LADDER"> F  </i>
   <i type="logical" name="LFXC"> F  </i>
   <i type="logical" name="LHARTREE"> T  </i>
   <i type="int" name="IBSE">     0</i>
   <v type="int" name="KPOINT">    -1     0     0     0</v>
   <i type="logical" name="LTCTE"> F  </i>
   <i type="logical" name="LTETE"> F  </i>
   <i type="logical" name="LTRIPLET"> F  </i>
   <i type="logical" name="LFXCEPS"> F  </i>
   <i type="logical" name="LFXHEG"> F  </i>
   <i type="int" name="NATURALO">     0</i>
   <i type="logical" name="L2ORDER"> F  </i>
   <i type="logical" name="LUSEW"> F  </i>
   <i name="ENCUTGW">     -2.00000000</i>
   <i name="ENCUTGWSOFT">     -2.00000000</i>
   <i name="ENCUTLF">     -1.00000000</i>
   <i type="int" name="LMAXMP2">    -1</i>
   <i name="SCISSOR">      0.00000000</i>
   <i type="int" name="NOMEGA">     0</i>
   <i type="int" name="NOMEGAR">     0</i>
   <i type="int" name="NBANDSGW">    -1</i>
   <i type="int" name="NBANDSO">    -1</i>
   <i type="int" name="NBANDSV">    -1</i>
   <i type="int" name="NELM">   100</i>
   <i type="int" name="NELMHF">     1</i>
   <i type="int" name="DIM">     3</i>
   <i type="int" name="ANTIRES">     0</i>
   <i name="OMEGAMAX">    -30.00000000</i>
   <i name="OMEGAMIN">    -30.00000000</i>
   <i name="OMEGATL">   -200.00000000</i>
   <i type="int" name="OMEGAGRID">     0</i>
   <i name="CSHIFT">     -0.10000000</i>
   <i type="logical" name="SELFENERGY"> F  </i>
   <i type="logical" name="LSPECTRAL"> F  </i>
   <i type="logical" name="LSPECTRALGW"> F  </i>
   <i type="logical" name="LSINGLES"> F  </i>
   <i type="logical" name="LFERMIGW"> F  </i>
   <i type="logical" name="ODDONLYGW"> F  </i>
   <i type="logical" name="EVENONLYGW"> F  </i>
   <i type="int" name="NKREDLFX">     1</i>
   <i type="int" name="NKREDLFY">     1</i>
   <i type="int" name="NKREDLFZ">     1</i>
   <i type="int" name="MAXMEM">  1800</i>
   <i type="int" name="TELESCOPE">     0</i>
   <i type="int" name="TAUPAR">     1</i>
   <i type="int" name="OMEGAPAR">    -1</i>
   <i name="LAMBDA">      1.00000000</i>
  </separator>
  <separator name="External order field" >
   <i name="OFIELD_KAPPA">      0.00000000</i>
   <v name="OFIELD_K">      0.00000000      0.00000000      0.00000000</v>
   <i name="OFIELD_Q6_NEAR">      0.00000000</i>
   <i name="OFIELD_Q6_FAR">      0.00000000</i>
   <i name="OFIELD_A">      0.00000000</i>
  </separator>
  <separator name="solvation model" >
   <i type="logical" name="LSOL"> F  </i>
  </separator>
 </parameters>
 <atominfo>
  <atoms>       5 </atoms>
  <types>       3 </types>
  <array name="atoms" >
   <dimension dim="1">ion</dimension>
   <field type="string">element</field>
   <field type="int">atomtype</field>
   <set>
    <rc><c>Sr</c><c>   1</c></rc>
    <rc><c>Fe</c><c>   2</c></rc>
    <rc><c>O </c><c>   3</c></rc>
    <rc><c>O </c><c>   3</c></rc>
    <rc><c>O </c><c>   3</c></rc>
   </set>
  </array>
  <array name="atomtypes" >
   <dimension dim="1">type</dimension>
   <field type="int">atomspertype</field>
   <field type="string">element</field>
   <field>mass</field>
   <field>valence</field>
   <field type="string">pseudopotential</field>
   <set>
    <rc><c>   1</c><c>Sr</c><c>     87.62000000</c><c>     10.00000000</c><c>  PAW Sr                                </c></rc>
    <rc><c>   1</c><c>Fe</c><c>     55.84700000</c><c>     14.00000000</c><c>  PAW Fe                                </c></rc>
    <rc><c>   3</c><c>O </c><c>     16.00000000</c><c>      6.00000000</c><c>  PAW O_s                               </c></rc>
   </set>
  </array>
 </atominfo>
 <structure name="initialpos" >
  <crystal>
   <varray name="basis" >
    <v>       3.92280000       0.00000000       0.00000000 </v>
    <v>       0.00000000       3.92280000       0.00000000 </v>
    <v>       0.00000000       0.00000000       3.92280000 </v>
   </varray>
   <i name="volume">     60.36545798 </i>
   <varray name="rec_basis" >
    <v>       0.25491996       0.00000000       0.00000000 </v>
    <v>       0.00000000       0.25491996       0.00000000 </v>
    <v>       0.00000000       0.00000000       0.25491996 </v>
   </varray>
  </crystal>
  <varray name="positions" >
   <v>       0.50000000       0.50000000       0.50000000 </v>
   <v>       0.00000000       0.00000000       0.00000000 </v>
   <v>       0.50000000       0.00000000       0.00000000 </v>
   <v>       0.00000000       0.50000000       0.00000000 </v>
   <v>       0.00000000       0.00000000       0.50000000 </v>
  </varray>
 </structure>
 <calculation>
  <scstep>
   <time name="dav">    0.43    0.43</time>
   <time name="total">    0.52    0.52</time>
   <energy>
    <i name="alphaZ">    284.73434231 </i>
    <i name="ewald">  -3220.55671256 </i>
    <i name="hartreedc">  -1300.36349077 </i>
    <i name="XCdc">    190.08844787 </i>
    <i name="pawpsdc">   3241.81915236 </i>
    <i name="pawaedc">  -3317.81696278 </i>
    <i name="eentropy">      0.00000000 </i>
    <i name="bandstr">   -155.38299418 </i>
    <i name="atom">   4601.94837920 </i>
    <i name="e_fr_energy">    324.47016144 </i>
    <i name="e_wo_entrp">    324.47016144 </i>
    <i name="e_0_energy">    324.47016144 </i>
   </energy>
  </scstep>
  <scstep>
   <time name="dav">    0.40    0.40</time>
   <time name="total">    0.42    0.42</time>
   <energy>
    <i name="e_fr_energy">    -18.83524258 </i>
    <i name="e_wo_entrp">    -18.83524258 </i>
    <i name="e_0_energy">    -18.83524258 </i>
   </energy>
  </scstep>
  <scstep>
   <time name="dav">    0.51    0.51</time>
   <time name="total">    0.52    0.53</time>
   <energy>
    <i name="e_fr_energy">    -37.07150164 </i>
    <i name="e_wo_entrp">    -37.07150164 </i>
    <i name="e_0_energy">    -37.07150164 </i>
   </energy>
  </scstep>
  <scstep>
   <time name="dav">    0.58    0.58</time>
   <time name="total">    0.60    0.60</time>
   <energy>
    <i name="e_fr_energy">    -37.64160014 </i>
    <i name="e_wo_entrp">    -37.64160014 </i>
    <i name="e_0_energy">    -37.64160014 </i>
   </energy>
  </scstep>
  <scstep>
   <time name="dav">    0.49    0.49</time>
   <time name="total">    0.53    0.53</time>
   <energy>
    <i name="e_fr_energy">    -37.65167113 </i>
    <i name="e_wo_entrp">    -37.65167113 </i>
    <i name="e_0_energy">    -37.65167113 </i>
   </energy>
  </scstep>
  <scstep>
   <time name="diag">    0.08    0.08</time>
   <time name="diis">    0.20    0.20</time>
   <time name="orth">    0.01    0.01</time>
   <time name="total">    0.40    0.40</time>
   <energy>
    <i name="e_fr_energy">    -43.52631258 </i>
    <i name="e_wo_entrp">    -43.52631258 </i>
    <i name="e_0_energy">    -43.52631258 </i>
   </energy>
  </scstep>
  <scstep>
   <time name="diag">    0.08    0.08</time>
   <time name="diis">    0.19    0.19</time>
   <time name="orth">    0.01    0.01</time>
   <time name="total">    0.38    0.39</time>
   <energy>
    <i name="e_fr_energy">    -32.19103800 </i>
    <i name="e_wo_entrp">    -32.19103800 </i>
    <i name="e_0_energy">    -32.19103800 </i>
   </energy>
  </scstep>
  <scstep>
   <time name="diag">    0.08    0.08</time>
   <time name="diis">    0.20    0.20</time>
   <time name="orth">    0.01    0.01</time>
   <time name="total">    0.40    0.40</time>
   <energy>
    <i name="e_fr_energy">    -32.12384078 </i>
    <i name="e_wo_entrp">    -32.12384078 </i>
    <i name="e_0_energy">    -32.12384078 </i>
   </energy>
  </scstep>
  <scstep>
   <time name="diag">    0.08    0.08</time>
   <time name="diis">    0.19    0.19</time>
   <time name="orth">    0.01    0.01</time>
   <time name="total">    0.38    0.39</time>
   <energy>
    <i name="e_fr_energy">    -31.56565501 </i>
    <i name="e_wo_entrp">    -31.56565501 </i>
    <i name="e_0_energy">    -31.56565501 </i>
   </energy>
  </scstep>
  <scstep>
   <time name="diag">    0.08    0.08</time>
   <time name="diis">    0.20    0.20</time>
   <time name="orth">    0.01    0.01</time>
   <time name="total">    0.40    0.40</time>
   <energy>
    <i name="e_fr_energy">    -31.46272682 </i>
    <i name="e_wo_entrp">    -31.46272682 </i>
    <i name="e_0_energy">    -31.46272682 </i>
   </energy>
  </scstep>
  <scstep>
   <time name="diag">    0.08    0.08</time>
   <time name="diis">    0.18    0.18</time>
   <time name="orth">    0.01    0.01</time>
   <time name="total">    0.38    0.38</time>
   <energy>
    <i name="e_fr_energy">    -31.46740437 </i>
    <i name="e_wo_entrp">    -31.46740437 </i>
    <i name="e_0_energy">    -31.46740437 </i>
   </energy>
  </scstep>
  <scstep>
   <time name="diag">    0.08    0.08</time>
   <time name="diis">    0.16    0.16</time>
   <time name="orth">    0.01    0.01</time>
   <time name="total">    0.36    0.36</time>
   <energy>
    <i name="e_fr_energy">    -31.47126204 </i>
    <i name="e_wo_entrp">    -31.47126204 </i>
    <i name="e_0_energy">    -31.47126204 </i>
   </energy>
  </scstep>
  <scstep>
   <time name="diag">    0.08    0.08</time>
   <time name="diis">    0.16    0.16</time>
   <time name="orth">    0.01    0.01</time>
   <time name="total">    0.36    0.36</time>
   <energy>
    <i name="e_fr_energy">    -31.46921321 </i>
    <i name="e_wo_entrp">    -31.46921321 </i>
    <i name="e_0_energy">    -31.46921321 </i>
   </energy>
  </scstep>
  <scstep>
   <time name="diag">    0.08    0.08</time>
   <time name="diis">    0.12    0.12</time>
   <time name="orth">    0.01    0.01</time>
   <time name="total">    0.29    0.30</time>
   <energy>
    <i name="alphaZ">    284.73434231 </i>
    <i name="ewald">  -3220.55671256 </i>
    <i name="hartreedc">  -1248.73179425 </i>
    <i name="XCdc">    191.26415341 </i>
    <i name="pawpsdc">   3445.30506872 </i>
    <i name="pawaedc">  -3532.54927760 </i>
    <i name="eentropy">      0.00000000 </i>
    <i name="bandstr">   -552.88385906 </i>
    <i name="atom">   4601.94837920 </i>
    <i name="e_fr_energy">    -31.46969983 </i>
    <i name="e_wo_entrp">    -31.46969983 </i>
    <i name="e_0_energy">    -31.46969983 </i>
   </energy>
  </scstep>
  <structure>
   <crystal>
    <varray name="basis" >
     <v>       3.92280000       0.00000000       0.00000000 </v>
     <v>       0.00000000       3.92280000       0.00000000 </v>
     <v>       0.00000000       0.00000000       3.92280000 </v>
    </varray>
    <i name="volume">     60.36545798 </i>
    <varray name="rec_basis" >
     <v>       0.25491996       0.00000000       0.00000000 </v>
     <v>       0.00000000       0.25491996       0.00000000 </v>
     <v>       0.00000000       0.00000000       0.25491996 </v>
    </varray>
   </crystal>
   <varray name="positions" >
    <v>       0.50000000       0.50000000       0.50000000 </v>
    <v>       0.00000000       0.00000000       0.00000000 </v>
    <v>       0.50000000       0.00000000       0.00000000 </v>
    <v>       0.00000000       0.50000000       0.00000000 </v>
    <v>       0.00000000       0.00000000       0.50000000 </v>
   </varray>
  </structure>
  <varray name="forces" >
   <v>       0.00000000       0.00000000       0.00000000 </v>
   <v>       0.00000000       0.00000000       0.00000000 </v>
   <v>       0.00000000       0.00000000       0.00000000 </v>
   <v>       0.00000000       0.00000000       0.00000000 </v>
   <v>       0.00000000       0.00000000       0.00000000 </v>
  </varray>
  <energy>
   <i name="e_fr_energy">    -31.46969983 </i>
   <i name="e_wo_entrp">    -31.46969983 </i>
   <i name="e_0_energy">      0.00000000 </i>
  </energy>
  <time name="totalsc">    6.34    6.37</time>
  <eigenvalues>
   <array>
    <dimension dim="1">band</dimension>
    <dimension dim="2">kpoint</dimension>
    <dimension dim="3">spin</dimension>
    <field>eigene</field>
    <field>occ</field>
    <set>
     <set comment="spin 1">
      <set comment="kpoint 1">
       <r>  -54.6906    1.0000 </r>
       <r>  -54.6906    1.0000 </r>
       <r>  -54.6904    1.0000 </r>
       <r>  -30.0873    1.0000 </r>
       <r>  -15.3384    1.0000 </r>
       <r>  -14.1665    1.0000 </r>
       <r>  -14.1665    1.0000 </r>
       <r>  -12.1184    1.0000 </r>
       <r>  -12.1184    1.0000 </r>
       <r>  -12.0613    1.0000 </r>
       <r>   -4.3848    1.0000 </r>
       <r>   -4.3848    1.0000 </r>
       <r>   -4.3787    1.0000 </r>
       <r>   -3.2253    1.0000 </r>
       <r>   -3.2253    1.0000 </r>
       <r>   -1.6081    1.0000 </r>
       <r>   -0.9225    1.0000 </r>
       <r>   -0.9225    1.0000 </r>
       <r>    1.1377    1.0000 </r>
       <r>    1.1377    1.0000 </r>
       <r>    1.3474    1.0000 </r>
       <r>    1.5052    1.0000 </r>
       <r>    1.9388    1.0002 </r>
       <r>    1.9388    1.0385 </r>
       <r>    8.3897    0.0000 </r>
       <r>    8.3897    0.0000 </r>
       <r>    8.8840    0.0000 </r>
       <r>   10.6347    0.0000 </r>
      </set>
      <set comment="kpoint 2">
       <r>  -54.6908    1.0000 </r>
       <r>  -54.6903    1.0000 </r>
       <r>  -54.6901    1.0000 </r>
       <r>  -30.0779    1.0000 </r>
       <r>  -15.3110    1.0000 </r>
       <r>  -14.2317    1.0000 </r>
       <r>  -14.1393    1.0000 </r>
       <r>  -12.1147    1.0000 </r>
       <r>  -12.0731    1.0000 </r>
       <r>  -11.8822    1.0000 </r>
       <r>   -4.5051    1.0000 </r>
       <r>   -4.4894    1.0000 </r>
       <r>   -4.3830    1.0000 </r>
       <r>   -4.3679    1.0000 </r>
       <r>   -3.2213    1.0000 </r>
       <r>   -1.6202    1.0000 </r>
       <r>   -0.8543    1.0000 </r>
       <r>   -0.0832    1.0000 </r>
       <r>    0.7986    1.0000 </r>
       <r>    1.0918    1.0000 </r>
       <r>    1.1348    1.0000 </r>
       <r>    1.3662    1.0000 </r>
       <r>    1.8284    1.0026 </r>
       <r>    2.0715    0.9546 </r>
       <r>    9.0705    0.0000 </r>
       <r>    9.1387    0.0000 </r>
       <r>    9.8814    0.0000 </r>
       <r>   10.8940    0.0000 </r>
      </set>
      <set comment="kpoint 3">
       <r>  -54.6915    1.0000 </r>
       <r>  -54.6903    1.0000 </r>
       <r>  -54.6902    1.0000 </r>
       <r>  -30.0685    1.0000 </r>
       <r>  -15.3322    1.0000 </r>
       <r>  -14.2076    1.0000 </r>
       <r>  -14.1138    1.0000 </r>
       <r>  -12.1115    1.0000 </r>
       <r>  -12.0383    1.0000 </r>
       <r>  -11.7246    1.0000 </r>
       <r>   -5.1942    1.0000 </r>
       <r>   -4.6120    1.0000 </r>
       <r>   -4.5862    1.0000 </r>
       <r>   -4.3840    1.0000 </r>
       <r>   -3.2205    1.0000 </r>
       <r>   -1.5377    1.0000 </r>
       <r>   -0.8192    1.0000 </r>
       <r>   -0.0265    1.0000 </r>
       <r>    0.5543    1.0000 </r>
       <r>    0.9988    1.0000 </r>
       <r>    1.3470    1.0000 </r>
       <r>    1.4384    1.0000 </r>
       <r>    1.6347    1.0048 </r>
       <r>    2.0436    0.8469 </r>
       <r>    9.8266    0.0000 </r>
       <r>   10.0065    0.0000 </r>
       <r>   10.8973    0.0000 </r>
       <r>   11.3826    0.0000 </r>
      </set>
      <set comment="kpoint 4">
       <r>  -54.6910    1.0000 </r>
       <r>  -54.6908    1.0000 </r>
       <r>  -54.6902    1.0000 </r>
       <r>  -30.0691    1.0000 </r>
       <r>  -15.1910    1.0000 </r>
       <r>  -14.3121    1.0000 </r>
       <r>  -14.1384    1.0000 </r>
       <r>  -12.1019    1.0000 </r>
       <r>  -12.0007    1.0000 </r>
       <r>  -11.8545    1.0000 </r>
       <r>   -4.6543    1.0000 </r>
       <r>   -4.5965    1.0000 </r>
       <r>   -4.5117    1.0000 </r>
       <r>   -4.4981    1.0000 </r>
       <r>   -4.0334    1.0000 </r>
       <r>   -1.7243    1.0000 </r>
       <r>   -0.3622    1.0000 </r>
       <r>    0.4289    1.0000 </r>
       <r>    0.5042    1.0000 </r>
       <r>    0.7468    1.0000 </r>
       <r>    1.0566    1.0000 </r>
       <r>    1.5739    1.0000 </r>
       <r>    1.7629    1.0257 </r>
       <r>    2.5994    0.1769 </r>
       <r>    9.5007    0.0000 </r>
       <r>    9.8642    0.0000 </r>
       <r>   10.2891    0.0000 </r>
       <r>   11.3084    0.0000 </r>
      </set>
      <set comment="kpoint 5">
       <r>  -54.6913    1.0000 </r>
       <r>  -54.6908    1.0000 </r>
       <r>  -54.6901    1.0000 </r>
       <r>  -30.0602    1.0000 </r>
       <r>  -15.1036    1.0000 </r>
       <r>  -14.3320    1.0000 </r>
       <r>  -14.1367    1.0000 </r>
       <r>  -12.1079    1.0000 </r>
       <r>  -11.9451    1.0000 </r>
       <r>  -11.8065    1.0000 </r>
       <r>   -5.2379    1.0000 </r>
       <r>   -4.7942    1.0000 </r>
       <r>   -4.6140    1.0000 </r>
       <r>   -4.5180    1.0000 </r>
       <r>   -4.2068    1.0000 </r>
       <r>   -1.6245    1.0000 </r>
       <r>   -0.1533    1.0000 </r>
       <r>    0.0397    1.0000 </r>
       <r>    0.5896    1.0000 </r>
       <r>    0.7596    1.0000 </r>
       <r>    1.2258    1.0000 </r>
       <r>    1.5505    1.0000 </r>
       <r>    1.8325    1.0483 </r>
       <r>    2.9337   -0.0222 </r>
       <r>   10.1561    0.0000 </r>
       <r>   10.6475    0.0000 </r>
       <r>   10.9026    0.0000 </r>
       <r>   11.4521    0.0000 </r>
      </set>
      <set comment="kpoint 6">
       <r>  -54.6915    1.0000 </r>
       <r>  -54.6914    1.0000 </r>
       <r>  -54.6902    1.0000 </r>
       <r>  -30.0519    1.0000 </r>
       <r>  -14.7802    1.0000 </r>
       <r>  -14.4415    1.0000 </r>
       <r>  -14.2678    1.0000 </r>
       <r>  -12.0736    1.0000 </r>
       <r>  -11.8952    1.0000 </r>
       <r>  -11.8617    1.0000 </r>
       <r>   -5.4165    1.0000 </r>
       <r>   -4.9719    1.0000 </r>
       <r>   -4.8560    1.0000 </r>
       <r>   -4.6385    1.0000 </r>
       <r>   -4.6344    1.0000 </r>
       <r>   -1.5313    1.0000 </r>
       <r>   -0.1225    1.0000 </r>
       <r>    0.3653    1.0000 </r>
       <r>    0.7038    1.0000 </r>
       <r>    0.7259    1.0000 </r>
       <r>    1.1553    1.0000 </r>
       <r>    1.3049    1.0000 </r>
       <r>    2.1824    1.0207 </r>
       <r>    3.6420    0.0000 </r>
       <r>   10.4281    0.0000 </r>
       <r>   10.6983    0.0000 </r>
       <r>   11.5285    0.0000 </r>
       <r>   11.5949    0.0000 </r>
      </set>
      <set comment="kpoint 7">
       <r>  -54.6911    1.0000 </r>
       <r>  -54.6911    1.0000 </r>
       <r>  -54.6910    1.0000 </r>
       <r>  -30.0607    1.0000 </r>
       <r>  -15.0402    1.0000 </r>
       <r>  -14.2268    1.0000 </r>
       <r>  -14.2268    1.0000 </r>
       <r>  -12.1068    1.0000 </r>
       <r>  -12.1068    1.0000 </r>
       <r>  -11.8163    1.0000 </r>
       <r>   -4.6955    1.0000 </r>
       <r>   -4.6265    1.0000 </r>
       <r>   -4.6265    1.0000 </r>
       <r>   -4.5842    1.0000 </r>
       <r>   -4.5842    1.0000 </r>
       <r>   -2.5291    1.0000 </r>
       <r>    0.2318    1.0000 </r>
       <r>    0.5642    1.0000 </r>
       <r>    0.5642    1.0000 </r>
       <r>    0.9157    1.0000 </r>
       <r>    0.9157    1.0000 </r>
       <r>    1.7952    1.0000 </r>
       <r>    2.5366    0.6099 </r>
       <r>    2.5366    0.0821 </r>
       <r>    9.9850    0.0000 </r>
       <r>    9.9901    0.0000 </r>
       <r>   10.2062    0.0000 </r>
       <r>   11.4090    0.0000 </r>
      </set>
      <set comment="kpoint 8">
       <r>  -54.6913    1.0000 </r>
       <r>  -54.6909    1.0000 </r>
       <r>  -54.6907    1.0000 </r>
       <r>  -30.0522    1.0000 </r>
       <r>  -14.8870    1.0000 </r>
       <r>  -14.3047    1.0000 </r>
       <r>  -14.1291    1.0000 </r>
       <r>  -12.2230    1.0000 </r>
       <r>  -12.0078    1.0000 </r>
       <r>  -11.8792    1.0000 </r>
       <r>   -5.2634    1.0000 </r>
       <r>   -4.8136    1.0000 </r>
       <r>   -4.7096    1.0000 </r>
       <r>   -4.6305    1.0000 </r>
       <r>   -4.5957    1.0000 </r>
       <r>   -2.7144    1.0000 </r>
       <r>    0.1025    1.0000 </r>
       <r>    0.5172    1.0000 </r>
       <r>    0.6087    1.0000 </r>
       <r>    0.9706    1.0000 </r>
       <r>    1.5625    1.0000 </r>
       <r>    1.9523    1.0000 </r>
       <r>    2.4286    0.5625 </r>
       <r>    3.0509   -0.0178 </r>
       <r>   10.3569    0.0000 </r>
       <r>   10.4942    0.0000 </r>
       <r>   10.5286    0.0000 </r>
       <r>   11.1356    0.0000 </r>
      </set>
      <set comment="kpoint 9">
       <r>  -54.6915    1.0000 </r>
       <r>  -54.6913    1.0000 </r>
       <r>  -54.6908    1.0000 </r>
       <r>  -30.0443    1.0000 </r>
       <r>  -14.5817    1.0000 </r>
       <r>  -14.3057    1.0000 </r>
       <r>  -14.1798    1.0000 </r>
       <r>  -12.2416    1.0000 </r>
       <r>  -12.0998    1.0000 </r>
       <r>  -12.0027    1.0000 </r>
       <r>   -5.4147    1.0000 </r>
       <r>   -5.0449    1.0000 </r>
       <r>   -4.8971    1.0000 </r>
       <r>   -4.7307    1.0000 </r>
       <r>   -4.7263    1.0000 </r>
       <r>   -3.0539    1.0000 </r>
       <r>    0.1608    1.0000 </r>
       <r>    0.5663    1.0000 </r>
       <r>    0.5878    1.0000 </r>
       <r>    1.5810    1.0000 </r>
       <r>    1.7132    1.0000 </r>
       <r>    2.2208    1.0000 </r>
       <r>    2.5309    0.1781 </r>
       <r>    3.6356    0.0000 </r>
       <r>   10.0715    0.0000 </r>
       <r>   10.4064    0.0000 </r>
       <r>   10.4643    0.0000 </r>
       <r>   11.3015    0.0000 </r>
      </set>
      <set comment="kpoint 10">
       <r>  -54.6914    1.0000 </r>
       <r>  -54.6914    1.0000 </r>
       <r>  -54.6913    1.0000 </r>
       <r>  -30.0366    1.0000 </r>
       <r>  -14.3134    1.0000 </r>
       <r>  -14.1416    1.0000 </r>
       <r>  -14.1416    1.0000 </r>
       <r>  -12.3314    1.0000 </r>
       <r>  -12.3314    1.0000 </r>
       <r>  -12.2189    1.0000 </r>
       <r>   -5.4128    1.0000 </r>
       <r>   -5.4128    1.0000 </r>
       <r>   -4.8430    1.0000 </r>
       <r>   -4.8076    1.0000 </r>
       <r>   -4.8076    1.0000 </r>
       <r>   -3.7117    1.0000 </r>
       <r>    0.4406    1.0000 </r>
       <r>    0.5610    1.0000 </r>
       <r>    0.5610    1.0000 </r>
       <r>    2.1588    1.0000 </r>
       <r>    2.1588    1.0000 </r>
       <r>    2.2864    1.0000 </r>
       <r>    3.6187    0.0000 </r>
       <r>    3.6187    0.0000 </r>
       <r>    9.6433    0.0000 </r>
       <r>    9.7336    0.0000 </r>
       <r>    9.7337    0.0000 </r>
       <r>   12.0680    0.0000 </r>
      </set>
     </set>
     <set comment="spin 2">
      <set comment="kpoint 1">
       <r>  -50.3640    1.0000 </r>
       <r>  -50.3640    1.0000 </r>
       <r>  -50.3639    1.0000 </r>
       <r>  -30.0839    1.0000 </r>
       <r>  -15.2022    1.0000 </r>
       <r>  -13.8044    1.0000 </r>
       <r>  -13.8044    1.0000 </r>
       <r>  -12.1018    1.0000 </r>
       <r>  -12.1018    1.0000 </r>
       <r>  -12.0510    1.0000 </r>
       <r>   -1.5023    1.0000 </r>
       <r>   -1.2986    1.0000 </r>
       <r>   -1.2986    1.0000 </r>
       <r>    1.1245    1.0000 </r>
       <r>    1.1245    1.0000 </r>
       <r>    1.4697    1.0000 </r>
       <r>    1.5408    1.0000 </r>
       <r>    1.8035    1.0000 </r>
       <r>    1.8035    1.0000 </r>
       <r>    3.8397    0.0000 </r>
       <r>    3.8845    0.0000 </r>
       <r>    3.8845    0.0000 </r>
       <r>    4.3895    0.0000 </r>
       <r>    4.3895    0.0000 </r>
       <r>    8.4432    0.0000 </r>
       <r>    8.4432    0.0000 </r>
       <r>    9.0580    0.0000 </r>
       <r>   10.8928    0.0000 </r>
      </set>
      <set comment="kpoint 2">
       <r>  -50.3647    1.0000 </r>
       <r>  -50.3638    1.0000 </r>
       <r>  -50.3637    1.0000 </r>
       <r>  -30.0746    1.0000 </r>
       <r>  -15.1711    1.0000 </r>
       <r>  -13.9772    1.0000 </r>
       <r>  -13.7721    1.0000 </r>
       <r>  -12.1004    1.0000 </r>
       <r>  -12.0560    1.0000 </r>
       <r>  -11.8485    1.0000 </r>
       <r>   -1.8917    1.0000 </r>
       <r>   -1.2919    1.0000 </r>
       <r>   -1.2591    1.0000 </r>
       <r>    0.4272    1.0000 </r>
       <r>    0.5205    1.0000 </r>
       <r>    1.0460    1.0000 </r>
       <r>    1.4184    1.0000 </r>
       <r>    1.4891    1.0000 </r>
       <r>    1.6250    1.0000 </r>
       <r>    3.8930    0.0000 </r>
       <r>    4.3164    0.0000 </r>
       <r>    4.4049    0.0000 </r>
       <r>    4.4806    0.0000 </r>
       <r>    5.2384    0.0000 </r>
       <r>    9.1464    0.0000 </r>
       <r>    9.1970    0.0000 </r>
       <r>   10.0443    0.0000 </r>
       <r>   10.9595    0.0000 </r>
      </set>
      <set comment="kpoint 3">
       <r>  -50.3656    1.0000 </r>
       <r>  -50.3638    1.0000 </r>
       <r>  -50.3637    1.0000 </r>
       <r>  -30.0652    1.0000 </r>
       <r>  -15.1711    1.0000 </r>
       <r>  -14.0698    1.0000 </r>
       <r>  -13.7424    1.0000 </r>
       <r>  -12.0998    1.0000 </r>
       <r>  -12.0257    1.0000 </r>
       <r>  -11.6827    1.0000 </r>
       <r>   -2.2381    1.0000 </r>
       <r>   -1.2616    1.0000 </r>
       <r>   -1.2115    1.0000 </r>
       <r>   -0.2516    1.0000 </r>
       <r>    0.1159    1.0000 </r>
       <r>    0.8719    1.0000 </r>
       <r>    1.1692    1.0000 </r>
       <r>    1.2314    1.0000 </r>
       <r>    1.4845    1.0000 </r>
       <r>    3.9196    0.0000 </r>
       <r>    4.3647    0.0000 </r>
       <r>    4.8607    0.0000 </r>
       <r>    4.8800    0.0000 </r>
       <r>    5.7911    0.0000 </r>
       <r>    9.9097    0.0000 </r>
       <r>   10.0679    0.0000 </r>
       <r>   10.9298    0.0000 </r>
       <r>   11.4681    0.0000 </r>
      </set>
      <set comment="kpoint 4">
       <r>  -50.3648    1.0000 </r>
       <r>  -50.3646    1.0000 </r>
       <r>  -50.3637    1.0000 </r>
       <r>  -30.0658    1.0000 </r>
       <r>  -15.0570    1.0000 </r>
       <r>  -14.0864    1.0000 </r>
       <r>  -13.8255    1.0000 </r>
       <r>  -12.0878    1.0000 </r>
       <r>  -11.9598    1.0000 </r>
       <r>  -11.8347    1.0000 </r>
       <r>   -2.1955    1.0000 </r>
       <r>   -1.3895    1.0000 </r>
       <r>   -1.1843    1.0000 </r>
       <r>   -0.4172    1.0000 </r>
       <r>    0.3910    1.0000 </r>
       <r>    0.5459    1.0000 </r>
       <r>    1.3191    1.0000 </r>
       <r>    1.3784    1.0000 </r>
       <r>    1.8534    1.0005 </r>
       <r>    4.3572    0.0000 </r>
       <r>    4.4655    0.0000 </r>
       <r>    4.5835    0.0000 </r>
       <r>    4.7868    0.0000 </r>
       <r>    5.8452    0.0000 </r>
       <r>    9.6023    0.0000 </r>
       <r>    9.9290    0.0000 </r>
       <r>   10.3889    0.0000 </r>
       <r>   11.4947    0.0000 </r>
      </set>
      <set comment="kpoint 5">
       <r>  -50.3655    1.0000 </r>
       <r>  -50.3646    1.0000 </r>
       <r>  -50.3636    1.0000 </r>
       <r>  -30.0570    1.0000 </r>
       <r>  -14.9504    1.0000 </r>
       <r>  -14.1980    1.0000 </r>
       <r>  -13.8336    1.0000 </r>
       <r>  -12.0962    1.0000 </r>
       <r>  -11.9238    1.0000 </r>
       <r>  -11.7733    1.0000 </r>
       <r>   -2.5046    1.0000 </r>
       <r>   -1.4516    1.0000 </r>
       <r>   -1.0817    1.0000 </r>
       <r>   -1.0122    1.0000 </r>
       <r>    0.0031    1.0000 </r>
       <r>    0.5249    1.0000 </r>
       <r>    1.0595    1.0000 </r>
       <r>    1.2785    1.0000 </r>
       <r>    1.9535    1.0132 </r>
       <r>    4.4220    0.0000 </r>
       <r>    4.8006    0.0000 </r>
       <r>    4.8740    0.0000 </r>
       <r>    4.9309    0.0000 </r>
       <r>    6.4544    0.0000 </r>
       <r>   10.2512    0.0000 </r>
       <r>   10.7184    0.0000 </r>
       <r>   10.9678    0.0000 </r>
       <r>   11.5571    0.0000 </r>
      </set>
      <set comment="kpoint 6">
       <r>  -50.3656    1.0000 </r>
       <r>  -50.3655    1.0000 </r>
       <r>  -50.3636    1.0000 </r>
       <r>  -30.0487    1.0000 </r>
       <r>  -14.6203    1.0000 </r>
       <r>  -14.3213    1.0000 </r>
       <r>  -14.0413    1.0000 </r>
       <r>  -12.0655    1.0000 </r>
       <r>  -11.8669    1.0000 </r>
       <r>  -11.8394    1.0000 </r>
       <r>   -2.8414    1.0000 </r>
       <r>   -1.6022    1.0000 </r>
       <r>   -1.5447    1.0000 </r>
       <r>   -0.8048    1.0000 </r>
       <r>   -0.0882    1.0000 </r>
       <r>    0.0443    1.0000 </r>
       <r>    1.1257    1.0000 </r>
       <r>    1.1981    1.0000 </r>
       <r>    2.3877    0.9463 </r>
       <r>    4.8345    0.0000 </r>
       <r>    4.8769    0.0000 </r>
       <r>    4.9543    0.0000 </r>
       <r>    5.0765    0.0000 </r>
       <r>    7.1816    0.0000 </r>
       <r>   10.4666    0.0000 </r>
       <r>   10.7783    0.0000 </r>
       <r>   11.6414    0.0000 </r>
       <r>   11.6828    0.0000 </r>
      </set>
      <set comment="kpoint 7">
       <r>  -50.3648    1.0000 </r>
       <r>  -50.3648    1.0000 </r>
       <r>  -50.3647    1.0000 </r>
       <r>  -30.0575    1.0000 </r>
       <r>  -14.9181    1.0000 </r>
       <r>  -13.9903    1.0000 </r>
       <r>  -13.9903    1.0000 </r>
       <r>  -12.0755    1.0000 </r>
       <r>  -12.0755    1.0000 </r>
       <r>  -11.7995    1.0000 </r>
       <r>   -2.4536    1.0000 </r>
       <r>   -1.3540    1.0000 </r>
       <r>   -1.3540    1.0000 </r>
       <r>   -0.5086    1.0000 </r>
       <r>   -0.1876    1.0000 </r>
       <r>   -0.1876    1.0000 </r>
       <r>    1.6374    1.0000 </r>
       <r>    1.6374    1.0000 </r>
       <r>    1.9942    1.0117 </r>
       <r>    4.5923    0.0000 </r>
       <r>    4.6710    0.0000 </r>
       <r>    4.6710    0.0000 </r>
       <r>    5.8270    0.0000 </r>
       <r>    5.8270    0.0000 </r>
       <r>   10.0884    0.0000 </r>
       <r>   10.0911    0.0000 </r>
       <r>   10.2810    0.0000 </r>
       <r>   11.5052    0.0000 </r>
      </set>
      <set comment="kpoint 8">
       <r>  -50.3655    1.0000 </r>
       <r>  -50.3646    1.0000 </r>
       <r>  -50.3645    1.0000 </r>
       <r>  -30.0491    1.0000 </r>
       <r>  -14.7489    1.0000 </r>
       <r>  -14.1706    1.0000 </r>
       <r>  -13.8775    1.0000 </r>
       <r>  -12.2051    1.0000 </r>
       <r>  -11.9786    1.0000 </r>
       <r>  -11.8588    1.0000 </r>
       <r>   -2.7552    1.0000 </r>
       <r>   -1.4539    1.0000 </r>
       <r>   -1.3076    1.0000 </r>
       <r>   -1.0044    1.0000 </r>
       <r>   -0.5406    1.0000 </r>
       <r>   -0.1669    1.0000 </r>
       <r>    1.6386    1.0000 </r>
       <r>    1.7520    1.0000 </r>
       <r>    2.0827    1.0881 </r>
       <r>    4.6889    0.0000 </r>
       <r>    4.9454    0.0000 </r>
       <r>    4.9807    0.0000 </r>
       <r>    5.7930    0.0000 </r>
       <r>    6.6063    0.0000 </r>
       <r>   10.4430    0.0000 </r>
       <r>   10.5762    0.0000 </r>
       <r>   10.6352    0.0000 </r>
       <r>   11.1855    0.0000 </r>
      </set>
      <set comment="kpoint 9">
       <r>  -50.3656    1.0000 </r>
       <r>  -50.3654    1.0000 </r>
       <r>  -50.3645    1.0000 </r>
       <r>  -30.0412    1.0000 </r>
       <r>  -14.4473    1.0000 </r>
       <r>  -14.1792    1.0000 </r>
       <r>  -13.9893    1.0000 </r>
       <r>  -12.2251    1.0000 </r>
       <r>  -12.0730    1.0000 </r>
       <r>  -11.9816    1.0000 </r>
       <r>   -3.1011    1.0000 </r>
       <r>   -1.5918    1.0000 </r>
       <r>   -1.2954    1.0000 </r>
       <r>   -1.2265    1.0000 </r>
       <r>   -0.5521    1.0000 </r>
       <r>   -0.5441    1.0000 </r>
       <r>    1.8491    1.0000 </r>
       <r>    1.8968    1.0000 </r>
       <r>    2.4230    0.5068 </r>
       <r>    4.9982    0.0000 </r>
       <r>    5.0169    0.0000 </r>
       <r>    5.1376    0.0000 </r>
       <r>    6.1208    0.0000 </r>
       <r>    7.1742    0.0000 </r>
       <r>   10.1459    0.0000 </r>
       <r>   10.5040    0.0000 </r>
       <r>   10.5754    0.0000 </r>
       <r>   11.3613    0.0000 </r>
      </set>
      <set comment="kpoint 10">
       <r>  -50.3655    1.0000 </r>
       <r>  -50.3655    1.0000 </r>
       <r>  -50.3654    1.0000 </r>
       <r>  -30.0336    1.0000 </r>
       <r>  -14.1957    1.0000 </r>
       <r>  -14.0050    1.0000 </r>
       <r>  -14.0050    1.0000 </r>
       <r>  -12.3103    1.0000 </r>
       <r>  -12.3103    1.0000 </r>
       <r>  -12.1970    1.0000 </r>
       <r>   -3.4686    1.0000 </r>
       <r>   -1.5803    1.0000 </r>
       <r>   -1.5803    1.0000 </r>
       <r>   -0.9562    1.0000 </r>
       <r>   -0.8155    1.0000 </r>
       <r>   -0.8155    1.0000 </r>
       <r>    2.3727    1.0000 </r>
       <r>    2.3727    1.0000 </r>
       <r>    2.4921    0.1310 </r>
       <r>    5.1914    0.0000 </r>
       <r>    5.2073    0.0000 </r>
       <r>    5.2073    0.0000 </r>
       <r>    7.1600    0.0000 </r>
       <r>    7.1600    0.0000 </r>
       <r>    9.7357    0.0000 </r>
       <r>    9.8188    0.0000 </r>
       <r>    9.8189    0.0000 </r>
       <r>   12.0980    0.0000 </r>
      </set>
     </set>
    </set>
   </array>
  </eigenvalues>
  <separator name="orbital magnetization" >
   <v name="MAGDIPOLOUT">      0.00000000      0.00000000      0.00000000</v>
  </separator>
 </calculation>
 <structure name="finalpos" >
  <crystal>
   <varray name="basis" >
    <v>       3.92280000       0.00000000       0.00000000 </v>
    <v>       0.00000000       3.92280000       0.00000000 </v>
    <v>       0.00000000       0.00000000       3.92280000 </v>
   </varray>
   <i name="volume">     60.36545798 </i>
   <varray name="rec_basis" >
    <v>       0.25491996       0.00000000       0.00000000 </v>
    <v>       0.00000000       0.25491996       0.00000000 </v>
    <v>       0.00000000       0.00000000       0.25491996 </v>
   </varray>
  </crystal>
  <varray name="positions" >
   <v>       0.50000000       0.50000000       0.50000000 </v>
   <v>       0.00000000       0.00000000       0.00000000 </v>
   <v>       0.50000000       0.00000000       0.00000000 </v>
   <v>       0.00000000       0.50000000       0.00000000 </v>
   <v>       0.00000000       0.00000000       0.50000000 </v>
  </varray>
 </structure>
</modeling>
