  32  32   0   0
  0.1054688E+03  0.1500000E-08  0.1500000E-08  0.1500000E-08  0.2500000E-14
   2500.00000000000     
  CAR 
 Ar cube particle                        
      3.83711672    -24.03145082  301     -7.21160911      1.00000000
    -24.031  0.0000E+00  0.0000E+00
    -23.939  0.0000E+00  0.0000E+00
    -23.846  0.0000E+00  0.0000E+00
    -23.753  0.0000E+00  0.0000E+00
    -23.660  0.0000E+00  0.0000E+00
    -23.567  0.0000E+00  0.0000E+00
    -23.474  0.0000E+00  0.0000E+00
    -23.381  0.0000E+00  0.0000E+00
    -23.288  0.0000E+00  0.0000E+00
    -23.195  0.0000E+00  0.0000E+00
    -23.102  0.0000E+00  0.0000E+00
    -23.010  0.2639E-10  0.2472E-11
    -22.917  0.1420E-03  0.1334E-04
    -22.824  0.1005E+01  0.9472E-01
    -22.731  0.2293E+02  0.2253E+01
    -22.638  0.3475E+02  0.5502E+01
    -22.545  0.6621E+02  0.1169E+02
    -22.452  0.1181E+03  0.2274E+02
    -22.359  0.1355E+03  0.3544E+02
    -22.266  0.9640E+02  0.4452E+02
    -22.174  0.6476E+02  0.5063E+02
    -22.081  0.4058E+02  0.5447E+02
    -21.988  0.2788E+02  0.5713E+02
    -21.895  0.1719E+02  0.5878E+02
    -21.802  0.9023E+01  0.5965E+02
    -21.709  0.7019E+01  0.6033E+02
    -21.616  0.5249E+01  0.6084E+02
    -21.523  0.3744E+01  0.6121E+02
    -21.430  0.3361E+01  0.6154E+02
    -21.337  0.2719E+01  0.6181E+02
    -21.245  0.2632E+01  0.6207E+02
    -21.152  0.2187E+01  0.6229E+02
    -21.059  0.2014E+01  0.6249E+02
    -20.966  0.1893E+01  0.6269E+02
    -20.873  0.1804E+01  0.6287E+02
    -20.780  0.1633E+01  0.6303E+02
    -20.687  0.1552E+01  0.6319E+02
    -20.594  0.1541E+01  0.6335E+02
    -20.501  0.1322E+01  0.6348E+02
    -20.409  0.1186E+01  0.6361E+02
    -20.316  0.9370E+00  0.6370E+02
    -20.223  0.8815E+00  0.6379E+02
    -20.130  0.9567E+00  0.6389E+02
    -20.037  0.5263E+00  0.6394E+02
    -19.944  0.4094E+00  0.6399E+02
    -19.851  0.1364E+00  0.6400E+02
    -19.758  0.4165E-03  0.6400E+02
    -19.665  0.8218E-09  0.6400E+02
    -19.572  0.0000E+00  0.6400E+02
    -19.480  0.0000E+00  0.6400E+02
    -19.387  0.0000E+00  0.6400E+02
    -19.294  0.0000E+00  0.6400E+02
    -19.201  0.0000E+00  0.6400E+02
    -19.108  0.0000E+00  0.6400E+02
    -19.015  0.0000E+00  0.6400E+02
    -18.922  0.0000E+00  0.6400E+02
    -18.829  0.0000E+00  0.6400E+02
    -18.736  0.0000E+00  0.6400E+02
    -18.644  0.0000E+00  0.6400E+02
    -18.551  0.0000E+00  0.6400E+02
    -18.458  0.0000E+00  0.6400E+02
    -18.365  0.0000E+00  0.6400E+02
    -18.272  0.0000E+00  0.6400E+02
    -18.179  0.0000E+00  0.6400E+02
    -18.086  0.0000E+00  0.6400E+02
    -17.993  0.0000E+00  0.6400E+02
    -17.900  0.0000E+00  0.6400E+02
    -17.807  0.0000E+00  0.6400E+02
    -17.715  0.0000E+00  0.6400E+02
    -17.622  0.0000E+00  0.6400E+02
    -17.529  0.0000E+00  0.6400E+02
    -17.436  0.0000E+00  0.6400E+02
    -17.343  0.0000E+00  0.6400E+02
    -17.250  0.0000E+00  0.6400E+02
    -17.157  0.0000E+00  0.6400E+02
    -17.064  0.0000E+00  0.6400E+02
    -16.971  0.0000E+00  0.6400E+02
    -16.879  0.0000E+00  0.6400E+02
    -16.786  0.0000E+00  0.6400E+02
    -16.693  0.0000E+00  0.6400E+02
    -16.600  0.0000E+00  0.6400E+02
    -16.507  0.0000E+00  0.6400E+02
    -16.414  0.0000E+00  0.6400E+02
    -16.321  0.0000E+00  0.6400E+02
    -16.228  0.0000E+00  0.6400E+02
    -16.135  0.0000E+00  0.6400E+02
    -16.042  0.0000E+00  0.6400E+02
    -15.950  0.0000E+00  0.6400E+02
    -15.857  0.0000E+00  0.6400E+02
    -15.764  0.0000E+00  0.6400E+02
    -15.671  0.0000E+00  0.6400E+02
    -15.578  0.0000E+00  0.6400E+02
    -15.485  0.0000E+00  0.6400E+02
    -15.392  0.0000E+00  0.6400E+02
    -15.299  0.0000E+00  0.6400E+02
    -15.206  0.0000E+00  0.6400E+02
    -15.114  0.0000E+00  0.6400E+02
    -15.021  0.0000E+00  0.6400E+02
    -14.928  0.0000E+00  0.6400E+02
    -14.835  0.0000E+00  0.6400E+02
    -14.742  0.0000E+00  0.6400E+02
    -14.649  0.0000E+00  0.6400E+02
    -14.556  0.0000E+00  0.6400E+02
    -14.463  0.0000E+00  0.6400E+02
    -14.370  0.0000E+00  0.6400E+02
    -14.277  0.0000E+00  0.6400E+02
    -14.185  0.0000E+00  0.6400E+02
    -14.092  0.0000E+00  0.6400E+02
    -13.999  0.0000E+00  0.6400E+02
    -13.906  0.0000E+00  0.6400E+02
    -13.813  0.0000E+00  0.6400E+02
    -13.720  0.0000E+00  0.6400E+02
    -13.627  0.0000E+00  0.6400E+02
    -13.534  0.0000E+00  0.6400E+02
    -13.441  0.0000E+00  0.6400E+02
    -13.348  0.0000E+00  0.6400E+02
    -13.256  0.0000E+00  0.6400E+02
    -13.163  0.0000E+00  0.6400E+02
    -13.070  0.0000E+00  0.6400E+02
    -12.977  0.0000E+00  0.6400E+02
    -12.884  0.0000E+00  0.6400E+02
    -12.791  0.0000E+00  0.6400E+02
    -12.698  0.0000E+00  0.6400E+02
    -12.605  0.0000E+00  0.6400E+02
    -12.512  0.0000E+00  0.6400E+02
    -12.420  0.0000E+00  0.6400E+02
    -12.327  0.0000E+00  0.6400E+02
    -12.234  0.0000E+00  0.6400E+02
    -12.141  0.0000E+00  0.6400E+02
    -12.048  0.0000E+00  0.6400E+02
    -11.955  0.0000E+00  0.6400E+02
    -11.862  0.0000E+00  0.6400E+02
    -11.769  0.0000E+00  0.6400E+02
    -11.676  0.0000E+00  0.6400E+02
    -11.583  0.0000E+00  0.6400E+02
    -11.491  0.0000E+00  0.6400E+02
    -11.398  0.1633E-15  0.6400E+02
    -11.305  0.3258E-07  0.6400E+02
    -11.212  0.1931E-02  0.6400E+02
    -11.119  0.1488E+00  0.6402E+02
    -11.026  0.4732E+00  0.6406E+02
    -10.933  0.4919E+00  0.6411E+02
    -10.840  0.4859E+00  0.6416E+02
    -10.747  0.5891E+00  0.6422E+02
    -10.655  0.8018E+00  0.6430E+02
    -10.562  0.8220E+00  0.6439E+02
    -10.469  0.1233E+01  0.6451E+02
    -10.376  0.1275E+01  0.6464E+02
    -10.283  0.2100E+01  0.6485E+02
    -10.190  0.2863E+01  0.6513E+02
    -10.097  0.2950E+01  0.6542E+02
    -10.004  0.4056E+01  0.6581E+02
     -9.911  0.5163E+01  0.6631E+02
     -9.818  0.8152E+01  0.6710E+02
     -9.726  0.1338E+02  0.6837E+02
     -9.633  0.1642E+02  0.6994E+02
     -9.540  0.1872E+02  0.7171E+02
     -9.447  0.2615E+02  0.7419E+02
     -9.354  0.3382E+02  0.7739E+02
     -9.261  0.4013E+02  0.8118E+02
     -9.168  0.4868E+02  0.8577E+02
     -9.075  0.6092E+02  0.9151E+02
     -8.982  0.6653E+02  0.9777E+02
     -8.890  0.7646E+02  0.1050E+03
     -8.797  0.9517E+02  0.1139E+03
     -8.704  0.1200E+03  0.1252E+03
     -8.611  0.1759E+03  0.1417E+03
     -8.518  0.2542E+03  0.1656E+03
     -8.425  0.2071E+03  0.1851E+03
     -8.332  0.1510E+03  0.1993E+03
     -8.239  0.1182E+03  0.2104E+03
     -8.146  0.9506E+02  0.2194E+03
     -8.053  0.7633E+02  0.2266E+03
     -7.961  0.6243E+02  0.2325E+03
     -7.868  0.5146E+02  0.2373E+03
     -7.775  0.4085E+02  0.2412E+03
     -7.682  0.3089E+02  0.2441E+03
     -7.589  0.2424E+02  0.2465E+03
     -7.496  0.2086E+02  0.2484E+03
     -7.403  0.1662E+02  0.2500E+03
     -7.310  0.1317E+02  0.2513E+03
     -7.217  0.1016E+02  0.2523E+03
     -7.125  0.7597E+01  0.2530E+03
     -7.032  0.5217E+01  0.2535E+03
     -6.939  0.3901E+01  0.2539E+03
     -6.846  0.2888E+01  0.2542E+03
     -6.753  0.2204E+01  0.2544E+03
     -6.660  0.2282E+01  0.2546E+03
     -6.567  0.2039E+01  0.2548E+03
     -6.474  0.1600E+01  0.2550E+03
     -6.381  0.1500E+01  0.2552E+03
     -6.288  0.1825E+01  0.2553E+03
     -6.196  0.1699E+01  0.2555E+03
     -6.103  0.1463E+01  0.2557E+03
     -6.010  0.8937E+00  0.2557E+03
     -5.917  0.7101E+00  0.2558E+03
     -5.824  0.5042E+00  0.2559E+03
     -5.731  0.5260E+00  0.2559E+03
     -5.638  0.5160E+00  0.2560E+03
     -5.545  0.1047E+00  0.2560E+03
     -5.452  0.8278E-01  0.2560E+03
     -5.360  0.2039E-01  0.2560E+03
     -5.267  0.3557E-04  0.2560E+03
     -5.174  0.4447E-10  0.2560E+03
     -5.081  0.0000E+00  0.2560E+03
     -4.988  0.0000E+00  0.2560E+03
     -4.895  0.0000E+00  0.2560E+03
     -4.802  0.0000E+00  0.2560E+03
     -4.709  0.0000E+00  0.2560E+03
     -4.616  0.0000E+00  0.2560E+03
     -4.523  0.0000E+00  0.2560E+03
     -4.431  0.0000E+00  0.2560E+03
     -4.338  0.0000E+00  0.2560E+03
     -4.245  0.0000E+00  0.2560E+03
     -4.152  0.0000E+00  0.2560E+03
     -4.059  0.0000E+00  0.2560E+03
     -3.966  0.0000E+00  0.2560E+03
     -3.873  0.0000E+00  0.2560E+03
     -3.780  0.0000E+00  0.2560E+03
     -3.687  0.0000E+00  0.2560E+03
     -3.595  0.0000E+00  0.2560E+03
     -3.502  0.0000E+00  0.2560E+03
     -3.409  0.0000E+00  0.2560E+03
     -3.316  0.0000E+00  0.2560E+03
     -3.223  0.0000E+00  0.2560E+03
     -3.130  0.0000E+00  0.2560E+03
     -3.037  0.0000E+00  0.2560E+03
     -2.944  0.0000E+00  0.2560E+03
     -2.851  0.0000E+00  0.2560E+03
     -2.758  0.0000E+00  0.2560E+03
     -2.666  0.0000E+00  0.2560E+03
     -2.573  0.0000E+00  0.2560E+03
     -2.480  0.0000E+00  0.2560E+03
     -2.387  0.0000E+00  0.2560E+03
     -2.294  0.0000E+00  0.2560E+03
     -2.201  0.0000E+00  0.2560E+03
     -2.108  0.0000E+00  0.2560E+03
     -2.015  0.0000E+00  0.2560E+03
     -1.922  0.0000E+00  0.2560E+03
     -1.829  0.0000E+00  0.2560E+03
     -1.737  0.0000E+00  0.2560E+03
     -1.644  0.0000E+00  0.2560E+03
     -1.551  0.0000E+00  0.2560E+03
     -1.458  0.0000E+00  0.2560E+03
     -1.365  0.0000E+00  0.2560E+03
     -1.272  0.0000E+00  0.2560E+03
     -1.179  0.0000E+00  0.2560E+03
     -1.086  0.0000E+00  0.2560E+03
     -0.993  0.0000E+00  0.2560E+03
     -0.901  0.0000E+00  0.2560E+03
     -0.808  0.0000E+00  0.2560E+03
     -0.715  0.0000E+00  0.2560E+03
     -0.622  0.0000E+00  0.2560E+03
     -0.529  0.0000E+00  0.2560E+03
     -0.436  0.0000E+00  0.2560E+03
     -0.343  0.0000E+00  0.2560E+03
     -0.250  0.0000E+00  0.2560E+03
     -0.157  0.2959E-13  0.2560E+03
     -0.064  0.5400E-06  0.2560E+03
      0.028  0.1812E-01  0.2560E+03
      0.121  0.3014E+01  0.2563E+03
      0.214  0.1005E+02  0.2572E+03
      0.307  0.4290E+01  0.2576E+03
      0.400  0.2086E+01  0.2578E+03
      0.493  0.8705E+00  0.2579E+03
      0.586  0.3580E+00  0.2579E+03
      0.679  0.3916E+00  0.2580E+03
      0.772  0.5302E+01  0.2585E+03
      0.864  0.2036E+02  0.2604E+03
      0.957  0.2946E+02  0.2632E+03
      1.050  0.2854E+02  0.2658E+03
      1.143  0.1632E+02  0.2674E+03
      1.236  0.5239E+01  0.2679E+03
      1.329  0.6092E+01  0.2685E+03
      1.422  0.9053E+01  0.2693E+03
      1.515  0.2179E+02  0.2714E+03
      1.608  0.3867E+02  0.2750E+03
      1.701  0.4959E+02  0.2797E+03
      1.793  0.3536E+02  0.2831E+03
      1.886  0.3028E+02  0.2859E+03
      1.979  0.3464E+02  0.2892E+03
      2.072  0.3337E+02  0.2923E+03
      2.165  0.1331E+02  0.2936E+03
      2.258  0.1323E+02  0.2949E+03
      2.351  0.3301E+02  0.2980E+03
      2.444  0.3958E+02  0.3017E+03
      2.537  0.3877E+02  0.3054E+03
      2.629  0.2678E+02  0.3079E+03
      2.722  0.1041E+01  0.3080E+03
      2.815  0.1434E-03  0.3080E+03
      2.908  0.2647E-10  0.3080E+03
      3.001  0.0000E+00  0.3080E+03
      3.094  0.0000E+00  0.3080E+03
      3.187  0.0000E+00  0.3080E+03
      3.280  0.0000E+00  0.3080E+03
      3.373  0.0000E+00  0.3080E+03
      3.466  0.0000E+00  0.3080E+03
      3.558  0.0000E+00  0.3080E+03
      3.651  0.0000E+00  0.3080E+03
      3.744  0.0000E+00  0.3080E+03
      3.837  0.0000E+00  0.3080E+03
      3.83999069    -24.02646475  301     -7.20789779      1.00000000
    -24.026  0.0000E+00  0.0000E+00
    -23.934  0.0000E+00  0.0000E+00
    -23.841  0.0000E+00  0.0000E+00
    -23.748  0.0000E+00  0.0000E+00
    -23.655  0.0000E+00  0.0000E+00
    -23.562  0.0000E+00  0.0000E+00
    -23.469  0.0000E+00  0.0000E+00
    -23.376  0.0000E+00  0.0000E+00
    -23.283  0.0000E+00  0.0000E+00
    -23.190  0.0000E+00  0.0000E+00
    -23.098  0.0000E+00  0.0000E+00
    -23.005  0.7147E-13  0.6639E-14
    -22.912  0.2843E-06  0.2640E-07
    -22.819  0.1622E-02  0.1507E-03
    -22.726  0.4730E-01  0.4544E-02
    -22.633  0.1092E+00  0.1469E-01
    -22.540  0.2146E+00  0.3462E-01
    -22.447  0.4142E+00  0.7310E-01
    -22.354  0.1442E+00  0.8650E-01
    -22.262  0.1033E+00  0.9609E-01
    -22.169  0.2540E-01  0.9845E-01
    -22.076  0.7949E-04  0.9846E-01
    -21.983  0.5778E-09  0.9846E-01
    -21.890  0.7355E-17  0.9846E-01
    -21.797  0.0000E+00  0.9846E-01
    -21.704  0.0000E+00  0.9846E-01
    -21.611  0.0000E+00  0.9846E-01
    -21.518  0.0000E+00  0.9846E-01
    -21.426  0.0000E+00  0.9846E-01
    -21.333  0.0000E+00  0.9846E-01
    -21.240  0.0000E+00  0.9846E-01
    -21.147  0.0000E+00  0.9846E-01
    -21.054  0.0000E+00  0.9846E-01
    -20.961  0.0000E+00  0.9846E-01
    -20.868  0.0000E+00  0.9846E-01
    -20.775  0.0000E+00  0.9846E-01
    -20.682  0.0000E+00  0.9846E-01
    -20.590  0.0000E+00  0.9846E-01
    -20.497  0.0000E+00  0.9846E-01
    -20.404  0.0000E+00  0.9846E-01
    -20.311  0.0000E+00  0.9846E-01
    -20.218  0.0000E+00  0.9846E-01
    -20.125  0.0000E+00  0.9846E-01
    -20.032  0.0000E+00  0.9846E-01
    -19.939  0.0000E+00  0.9846E-01
    -19.846  0.0000E+00  0.9846E-01
    -19.754  0.0000E+00  0.9846E-01
    -19.661  0.0000E+00  0.9846E-01
    -19.568  0.0000E+00  0.9846E-01
    -19.475  0.0000E+00  0.9846E-01
    -19.382  0.0000E+00  0.9846E-01
    -19.289  0.0000E+00  0.9846E-01
    -19.196  0.0000E+00  0.9846E-01
    -19.103  0.0000E+00  0.9846E-01
    -19.011  0.0000E+00  0.9846E-01
    -18.918  0.0000E+00  0.9846E-01
    -18.825  0.0000E+00  0.9846E-01
    -18.732  0.0000E+00  0.9846E-01
    -18.639  0.0000E+00  0.9846E-01
    -18.546  0.0000E+00  0.9846E-01
    -18.453  0.0000E+00  0.9846E-01
    -18.360  0.0000E+00  0.9846E-01
    -18.267  0.0000E+00  0.9846E-01
    -18.175  0.0000E+00  0.9846E-01
    -18.082  0.0000E+00  0.9846E-01
    -17.989  0.0000E+00  0.9846E-01
    -17.896  0.0000E+00  0.9846E-01
    -17.803  0.0000E+00  0.9846E-01
    -17.710  0.0000E+00  0.9846E-01
    -17.617  0.0000E+00  0.9846E-01
    -17.524  0.0000E+00  0.9846E-01
    -17.431  0.0000E+00  0.9846E-01
    -17.339  0.0000E+00  0.9846E-01
    -17.246  0.0000E+00  0.9846E-01
    -17.153  0.0000E+00  0.9846E-01
    -17.060  0.0000E+00  0.9846E-01
    -16.967  0.0000E+00  0.9846E-01
    -16.874  0.0000E+00  0.9846E-01
    -16.781  0.0000E+00  0.9846E-01
    -16.688  0.0000E+00  0.9846E-01
    -16.595  0.0000E+00  0.9846E-01
    -16.503  0.0000E+00  0.9846E-01
    -16.410  0.0000E+00  0.9846E-01
    -16.317  0.0000E+00  0.9846E-01
    -16.224  0.0000E+00  0.9846E-01
    -16.131  0.0000E+00  0.9846E-01
    -16.038  0.0000E+00  0.9846E-01
    -15.945  0.0000E+00  0.9846E-01
    -15.852  0.0000E+00  0.9846E-01
    -15.759  0.0000E+00  0.9846E-01
    -15.667  0.0000E+00  0.9846E-01
    -15.574  0.0000E+00  0.9846E-01
    -15.481  0.0000E+00  0.9846E-01
    -15.388  0.0000E+00  0.9846E-01
    -15.295  0.0000E+00  0.9846E-01
    -15.202  0.0000E+00  0.9846E-01
    -15.109  0.0000E+00  0.9846E-01
    -15.016  0.0000E+00  0.9846E-01
    -14.923  0.0000E+00  0.9846E-01
    -14.831  0.0000E+00  0.9846E-01
    -14.738  0.0000E+00  0.9846E-01
    -14.645  0.0000E+00  0.9846E-01
    -14.552  0.0000E+00  0.9846E-01
    -14.459  0.0000E+00  0.9846E-01
    -14.366  0.0000E+00  0.9846E-01
    -14.273  0.0000E+00  0.9846E-01
    -14.180  0.0000E+00  0.9846E-01
    -14.087  0.0000E+00  0.9846E-01
    -13.995  0.0000E+00  0.9846E-01
    -13.902  0.0000E+00  0.9846E-01
    -13.809  0.0000E+00  0.9846E-01
    -13.716  0.0000E+00  0.9846E-01
    -13.623  0.0000E+00  0.9846E-01
    -13.530  0.0000E+00  0.9846E-01
    -13.437  0.0000E+00  0.9846E-01
    -13.344  0.0000E+00  0.9846E-01
    -13.251  0.0000E+00  0.9846E-01
    -13.159  0.0000E+00  0.9846E-01
    -13.066  0.0000E+00  0.9846E-01
    -12.973  0.0000E+00  0.9846E-01
    -12.880  0.0000E+00  0.9846E-01
    -12.787  0.0000E+00  0.9846E-01
    -12.694  0.0000E+00  0.9846E-01
    -12.601  0.0000E+00  0.9846E-01
    -12.508  0.0000E+00  0.9846E-01
    -12.415  0.0000E+00  0.9846E-01
    -12.323  0.0000E+00  0.9846E-01
    -12.230  0.0000E+00  0.9846E-01
    -12.137  0.0000E+00  0.9846E-01
    -12.044  0.0000E+00  0.9846E-01
    -11.951  0.0000E+00  0.9846E-01
    -11.858  0.0000E+00  0.9846E-01
    -11.765  0.0000E+00  0.9846E-01
    -11.672  0.0000E+00  0.9846E-01
    -11.579  0.0000E+00  0.9846E-01
    -11.487  0.0000E+00  0.9846E-01
    -11.394  0.0000E+00  0.9846E-01
    -11.301  0.0000E+00  0.9846E-01
    -11.208  0.0000E+00  0.9846E-01
    -11.115  0.0000E+00  0.9846E-01
    -11.022  0.0000E+00  0.9846E-01
    -10.929  0.0000E+00  0.9846E-01
    -10.836  0.0000E+00  0.9846E-01
    -10.743  0.0000E+00  0.9846E-01
    -10.651  0.0000E+00  0.9846E-01
    -10.558  0.0000E+00  0.9846E-01
    -10.465  0.0000E+00  0.9846E-01
    -10.372  0.0000E+00  0.9846E-01
    -10.279  0.0000E+00  0.9846E-01
    -10.186  0.0000E+00  0.9846E-01
    -10.093  0.0000E+00  0.9846E-01
    -10.000  0.0000E+00  0.9846E-01
     -9.907  0.0000E+00  0.9846E-01
     -9.815  0.0000E+00  0.9846E-01
     -9.722  0.7539E-16  0.9846E-01
     -9.629  0.3651E-08  0.9846E-01
     -9.536  0.2328E-03  0.9848E-01
     -9.443  0.3177E-01  0.1014E+00
     -9.350  0.6516E-01  0.1075E+00
     -9.257  0.6997E-01  0.1140E+00
     -9.164  0.6515E-01  0.1200E+00
     -9.071  0.3903E-01  0.1237E+00
     -8.979  0.6949E-01  0.1301E+00
     -8.886  0.1374E+00  0.1429E+00
     -8.793  0.1504E+00  0.1568E+00
     -8.700  0.1475E+00  0.1705E+00
     -8.607  0.2568E+00  0.1944E+00
     -8.514  0.5679E+00  0.2472E+00
     -8.421  0.4935E+00  0.2930E+00
     -8.328  0.2801E+00  0.3190E+00
     -8.235  0.2034E+00  0.3379E+00
     -8.143  0.1644E+00  0.3532E+00
     -8.050  0.5905E-01  0.3587E+00
     -7.957  0.7970E-01  0.3661E+00
     -7.864  0.6263E-01  0.3719E+00
     -7.771  0.5376E-01  0.3769E+00
     -7.678  0.8456E-01  0.3847E+00
     -7.585  0.5957E-01  0.3903E+00
     -7.492  0.2986E-01  0.3930E+00
     -7.399  0.8695E-02  0.3938E+00
     -7.307  0.1835E-04  0.3938E+00
     -7.214  0.6439E-10  0.3938E+00
     -7.121  0.0000E+00  0.3938E+00
     -7.028  0.0000E+00  0.3938E+00
     -6.935  0.0000E+00  0.3938E+00
     -6.842  0.0000E+00  0.3938E+00
     -6.749  0.0000E+00  0.3938E+00
     -6.656  0.0000E+00  0.3938E+00
     -6.563  0.0000E+00  0.3938E+00
     -6.471  0.0000E+00  0.3938E+00
     -6.378  0.0000E+00  0.3938E+00
     -6.285  0.0000E+00  0.3938E+00
     -6.192  0.0000E+00  0.3938E+00
     -6.099  0.0000E+00  0.3938E+00
     -6.006  0.0000E+00  0.3938E+00
     -5.913  0.0000E+00  0.3938E+00
     -5.820  0.0000E+00  0.3938E+00
     -5.727  0.0000E+00  0.3938E+00
     -5.635  0.0000E+00  0.3938E+00
     -5.542  0.0000E+00  0.3938E+00
     -5.449  0.0000E+00  0.3938E+00
     -5.356  0.0000E+00  0.3938E+00
     -5.263  0.0000E+00  0.3938E+00
     -5.170  0.0000E+00  0.3938E+00
     -5.077  0.0000E+00  0.3938E+00
     -4.984  0.0000E+00  0.3938E+00
     -4.891  0.0000E+00  0.3938E+00
     -4.799  0.0000E+00  0.3938E+00
     -4.706  0.0000E+00  0.3938E+00
     -4.613  0.0000E+00  0.3938E+00
     -4.520  0.0000E+00  0.3938E+00
     -4.427  0.0000E+00  0.3938E+00
     -4.334  0.0000E+00  0.3938E+00
     -4.241  0.0000E+00  0.3938E+00
     -4.148  0.0000E+00  0.3938E+00
     -4.056  0.0000E+00  0.3938E+00
     -3.963  0.0000E+00  0.3938E+00
     -3.870  0.0000E+00  0.3938E+00
     -3.777  0.0000E+00  0.3938E+00
     -3.684  0.0000E+00  0.3938E+00
     -3.591  0.0000E+00  0.3938E+00
     -3.498  0.0000E+00  0.3938E+00
     -3.405  0.0000E+00  0.3938E+00
     -3.312  0.0000E+00  0.3938E+00
     -3.220  0.0000E+00  0.3938E+00
     -3.127  0.0000E+00  0.3938E+00
     -3.034  0.0000E+00  0.3938E+00
     -2.941  0.0000E+00  0.3938E+00
     -2.848  0.0000E+00  0.3938E+00
     -2.755  0.0000E+00  0.3938E+00
     -2.662  0.0000E+00  0.3938E+00
     -2.569  0.0000E+00  0.3938E+00
     -2.476  0.0000E+00  0.3938E+00
     -2.384  0.0000E+00  0.3938E+00
     -2.291  0.0000E+00  0.3938E+00
     -2.198  0.0000E+00  0.3938E+00
     -2.105  0.0000E+00  0.3938E+00
     -2.012  0.0000E+00  0.3938E+00
     -1.919  0.0000E+00  0.3938E+00
     -1.826  0.0000E+00  0.3938E+00
     -1.733  0.0000E+00  0.3938E+00
     -1.640  0.0000E+00  0.3938E+00
     -1.548  0.0000E+00  0.3938E+00
     -1.455  0.0000E+00  0.3938E+00
     -1.362  0.0000E+00  0.3938E+00
     -1.269  0.0000E+00  0.3938E+00
     -1.176  0.0000E+00  0.3938E+00
     -1.083  0.0000E+00  0.3938E+00
     -0.990  0.0000E+00  0.3938E+00
     -0.897  0.0000E+00  0.3938E+00
     -0.804  0.0000E+00  0.3938E+00
     -0.712  0.0000E+00  0.3938E+00
     -0.619  0.0000E+00  0.3938E+00
     -0.526  0.0000E+00  0.3938E+00
     -0.433  0.0000E+00  0.3938E+00
     -0.340  0.0000E+00  0.3938E+00
     -0.247  0.0000E+00  0.3938E+00
     -0.154  0.0000E+00  0.3938E+00
     -0.061  0.3719E-10  0.3938E+00
      0.032  0.1330E-04  0.3938E+00
      0.124  0.7751E-02  0.3946E+00
      0.217  0.2442E-01  0.3968E+00
      0.310  0.9450E-03  0.3969E+00
      0.403  0.9763E-07  0.3969E+00
      0.496  0.1442E-13  0.3969E+00
      0.589  0.1522E-07  0.3969E+00
      0.682  0.3735E-03  0.3970E+00
      0.775  0.2087E-01  0.3989E+00
      0.868  0.3221E-01  0.4019E+00
      0.960  0.5640E-01  0.4071E+00
      1.053  0.3510E-01  0.4104E+00
      1.146  0.2035E-01  0.4123E+00
      1.239  0.6853E-02  0.4129E+00
      1.332  0.2534E-01  0.4153E+00
      1.425  0.5200E-02  0.4158E+00
      1.518  0.5354E-01  0.4207E+00
      1.611  0.6168E-01  0.4265E+00
      1.704  0.5575E-01  0.4316E+00
      1.796  0.5466E-01  0.4367E+00
      1.889  0.5423E-01  0.4417E+00
      1.982  0.6475E-01  0.4478E+00
      2.075  0.2923E-01  0.4505E+00
      2.168  0.2200E-01  0.4525E+00
      2.261  0.2903E-01  0.4552E+00
      2.354  0.4753E-01  0.4596E+00
      2.447  0.7431E-01  0.4665E+00
      2.540  0.4192E-01  0.4704E+00
      2.632  0.3521E-01  0.4737E+00
      2.725  0.1588E-02  0.4738E+00
      2.818  0.2840E-06  0.4738E+00
      2.911  0.7147E-13  0.4738E+00
      3.004  0.0000E+00  0.4738E+00
      3.097  0.0000E+00  0.4738E+00
      3.190  0.0000E+00  0.4738E+00
      3.283  0.0000E+00  0.4738E+00
      3.376  0.0000E+00  0.4738E+00
      3.468  0.0000E+00  0.4738E+00
      3.561  0.0000E+00  0.4738E+00
      3.654  0.0000E+00  0.4738E+00
      3.747  0.0000E+00  0.4738E+00
      3.840  0.0000E+00  0.4738E+00
