       N       E                     dE             d eps       ncg     rms          rms(c)
DAV:   1     0.272343695746E+04    0.27234E+04   -0.74276E+04   380   0.775E+02
DAV:   2     0.708564929039E+03   -0.20149E+04   -0.19055E+04   472   0.217E+02
DAV:   3     0.770446624467E+02   -0.63152E+03   -0.62496E+03   356   0.124E+02
DAV:   4     0.440517169340E+02   -0.32993E+02   -0.32926E+02   320   0.349E+01
DAV:   5     0.434020652246E+02   -0.64965E+00   -0.64960E+00   358   0.457E+00    0.401E+00
RMM:   6     0.438381795389E+02    0.43611E+00   -0.92029E-01   308   0.196E+00    0.198E+00
RMM:   7     0.439367497318E+02    0.98570E-01   -0.67885E-01   308   0.167E+00    0.557E-01
RMM:   8     0.439409565975E+02    0.42069E-02   -0.51667E-02   309   0.485E-01    0.211E-01
RMM:   9     0.439410353629E+02    0.78765E-04   -0.68712E-03   308   0.166E-01    0.673E-02
RMM:  10     0.439387554312E+02   -0.22799E-02   -0.25665E-03   294   0.111E-01    0.495E-02
RMM:  11     0.439383120038E+02   -0.44343E-03   -0.96610E-04   275   0.570E-02    0.247E-02
RMM:  12     0.439378864027E+02   -0.42560E-03   -0.82686E-04   253   0.530E-02    0.118E-02
RMM:  13     0.439378678484E+02   -0.18554E-04   -0.46339E-05   173   0.138E-02
    1 T=  2599. E= 0.54687568E+02 F= 0.43937868E+02 E0= 0.43937868E+02  EK= 0.10750E+02 SP= 0.00E+00 SK= 0.00E+00
       N       E                     dE             d eps       ncg     rms          rms(c)
DAV:   1     0.436225300269E+02   -0.31536E+00   -0.10661E+02   308   0.235E+01    0.134E+00
RMM:   2     0.432544363940E+02   -0.36809E+00   -0.41840E+00   308   0.462E+00    0.535E-01
RMM:   3     0.432480760529E+02   -0.63603E-02   -0.18149E-01   365   0.887E-01    0.667E-01
RMM:   4     0.432537874557E+02    0.57114E-02   -0.51845E-03   308   0.181E-01    0.564E-01
RMM:   5     0.432573385312E+02    0.35511E-02   -0.13961E-01   308   0.638E-01    0.307E-01
RMM:   6     0.432587366786E+02    0.13981E-02   -0.27551E-03   287   0.123E-01    0.306E-01
RMM:   7     0.432627227527E+02    0.39861E-02   -0.10232E-02   308   0.169E-01    0.939E-02
RMM:   8     0.432627629869E+02    0.40234E-04   -0.78094E-04   279   0.517E-02
    2 T=  2886. E= 0.55199201E+02 F= 0.43262763E+02 E0= 0.43262763E+02  EK= 0.11936E+02 SP= 0.00E+00 SK= 0.00E+00
       N       E                     dE             d eps       ncg     rms          rms(c)
DAV:   1     0.423777636506E+02   -0.88496E+00   -0.43812E+01   308   0.165E+01    0.977E-01
RMM:   2     0.421423925678E+02   -0.23537E+00   -0.25835E+00   308   0.369E+00    0.384E-01
RMM:   3     0.421442907402E+02    0.18982E-02   -0.85457E-02   341   0.636E-01    0.422E-01
RMM:   4     0.421453075238E+02    0.10168E-02   -0.39486E-03   342   0.150E-01    0.412E-01
RMM:   5     0.421488840504E+02    0.35765E-02   -0.58462E-03   308   0.130E-01    0.258E-01
RMM:   6     0.421478383463E+02   -0.10457E-02   -0.37387E-02   308   0.326E-01    0.197E-01
RMM:   7     0.421499067725E+02    0.20684E-02   -0.24772E-03   300   0.951E-02    0.784E-02
RMM:   8     0.421496047805E+02   -0.30199E-03   -0.87494E-03   308   0.153E-01    0.103E-01
RMM:   9     0.421501324419E+02    0.52766E-03   -0.16133E-03   288   0.701E-02    0.506E-03
RMM:  10     0.421501277138E+02   -0.47281E-05   -0.54618E-05   171   0.190E-02
    3 T=  3278. E= 0.55707871E+02 F= 0.42150128E+02 E0= 0.42150128E+02  EK= 0.13558E+02 SP= 0.00E+00 SK= 0.00E+00
       N       E                     dE             d eps       ncg     rms          rms(c)
DAV:   1     0.412236795306E+02   -0.92645E+00   -0.29493E+01   316   0.148E+01    0.937E-01
RMM:   2     0.410124973924E+02   -0.21118E+00   -0.23474E+00   308   0.341E+00    0.385E-01
RMM:   3     0.410154624219E+02    0.29650E-02   -0.70920E-02   328   0.608E-01    0.404E-01
RMM:   4     0.410174815996E+02    0.20192E-02   -0.36518E-03   333   0.150E-01    0.353E-01
RMM:   5     0.410209054244E+02    0.34238E-02   -0.17201E-02   308   0.220E-01    0.778E-02
RMM:   6     0.410204543160E+02   -0.45111E-03   -0.40127E-03   304   0.115E-01    0.852E-02
RMM:   7     0.410207819382E+02    0.32762E-03   -0.33425E-03   299   0.955E-02    0.465E-02
RMM:   8     0.410208748816E+02    0.92943E-04   -0.22131E-04   184   0.310E-02
    4 T=  3211. E= 0.54302977E+02 F= 0.41020875E+02 E0= 0.41020875E+02  EK= 0.13282E+02 SP= 0.00E+00 SK= 0.00E+00
       N       E                     dE             d eps       ncg     rms          rms(c)
DAV:   1     0.401059244817E+02   -0.91486E+00   -0.36952E+01   308   0.158E+01    0.978E-01
RMM:   2     0.398776447421E+02   -0.22828E+00   -0.25335E+00   308   0.352E+00    0.408E-01
RMM:   3     0.398798595911E+02    0.22148E-02   -0.81829E-02   335   0.632E-01    0.440E-01
RMM:   4     0.398815588028E+02    0.16992E-02   -0.38743E-03   339   0.151E-01    0.410E-01
RMM:   5     0.398863343039E+02    0.47755E-02   -0.22028E-02   308   0.249E-01    0.997E-02
RMM:   6     0.398851233570E+02   -0.12109E-02   -0.10586E-02   308   0.180E-01    0.142E-01
RMM:   7     0.398862986897E+02    0.11753E-02   -0.42545E-03   307   0.111E-01    0.230E-02
RMM:   8     0.398862940548E+02   -0.46350E-05   -0.20505E-04   187   0.316E-02
    5 T=  3023. E= 0.52388986E+02 F= 0.39886294E+02 E0= 0.39886294E+02  EK= 0.12503E+02 SP= 0.00E+00 SK= 0.00E+00
       N       E                     dE             d eps       ncg     rms          rms(c)
DAV:   1     0.387580689539E+02   -0.11282E+01   -0.44662E+01   308   0.169E+01    0.104E+00
RMM:   2     0.385131489169E+02   -0.24492E+00   -0.27384E+00   308   0.369E+00    0.431E-01
RMM:   3     0.385139903386E+02    0.84142E-03   -0.92284E-02   340   0.673E-01    0.477E-01
RMM:   4     0.385165827952E+02    0.25925E-02   -0.38498E-03   322   0.157E-01    0.420E-01
RMM:   5     0.385210807481E+02    0.44980E-02   -0.34573E-02   308   0.315E-01    0.655E-02
RMM:   6     0.385201074624E+02   -0.97329E-03   -0.52945E-03   311   0.135E-01    0.147E-01
RMM:   7     0.385212204484E+02    0.11130E-02   -0.73107E-03   308   0.141E-01    0.382E-02
RMM:   8     0.385212719724E+02    0.51524E-04   -0.26505E-04   193   0.353E-02
    6 T=  3064. E= 0.51194735E+02 F= 0.38521272E+02 E0= 0.38521272E+02  EK= 0.12673E+02 SP= 0.00E+00 SK= 0.00E+00
       N       E                     dE             d eps       ncg     rms          rms(c)
DAV:   1     0.371233646726E+02   -0.13979E+01   -0.18479E+01   316   0.127E+01    0.861E-01
RMM:   2     0.369565033645E+02   -0.16686E+00   -0.18583E+00   308   0.302E+00    0.323E-01
RMM:   3     0.369590275774E+02    0.25242E-02   -0.53567E-02   324   0.538E-01    0.336E-01
RMM:   4     0.369604078215E+02    0.13802E-02   -0.30647E-03   344   0.134E-01    0.293E-01
RMM:   5     0.369625988340E+02    0.21910E-02   -0.88016E-03   308   0.158E-01    0.851E-02
RMM:   6     0.369623519444E+02   -0.24689E-03   -0.34591E-03   301   0.105E-01    0.628E-02
RMM:   7     0.369625199977E+02    0.16805E-03   -0.20948E-03   286   0.766E-02    0.462E-02
RMM:   8     0.369625971054E+02    0.77108E-04   -0.11667E-04   180   0.240E-02
    7 T=  3288. E= 0.50562698E+02 F= 0.36962597E+02 E0= 0.36962597E+02  EK= 0.13600E+02 SP= 0.00E+00 SK= 0.00E+00
       N       E                     dE             d eps       ncg     rms          rms(c)
DAV:   1     0.356090248461E+02   -0.13535E+01   -0.18332E+01   308   0.129E+01    0.878E-01
RMM:   2     0.354240971777E+02   -0.18493E+00   -0.20407E+00   308   0.316E+00    0.347E-01
RMM:   3     0.354274626600E+02    0.33655E-02   -0.56738E-02   328   0.552E-01    0.354E-01
RMM:   4     0.354287003248E+02    0.12377E-02   -0.32533E-03   340   0.135E-01    0.323E-01
RMM:   5     0.354312045989E+02    0.25043E-02   -0.62573E-03   308   0.134E-01    0.145E-01
RMM:   6     0.354312541166E+02    0.49518E-04   -0.57830E-03   307   0.132E-01    0.575E-02
RMM:   7     0.354313402342E+02    0.86118E-04   -0.14463E-03   283   0.670E-02    0.527E-02
RMM:   8     0.354313979093E+02    0.57675E-04   -0.45459E-05   180   0.184E-02
    8 T=  3692. E= 0.50703783E+02 F= 0.35431398E+02 E0= 0.35431398E+02  EK= 0.15272E+02 SP= 0.00E+00 SK= 0.00E+00
       N       E                     dE             d eps       ncg     rms          rms(c)
DAV:   1     0.339597459193E+02   -0.14716E+01   -0.16882E+01   308   0.132E+01    0.929E-01
RMM:   2     0.337565046246E+02   -0.20324E+00   -0.22278E+00   308   0.333E+00    0.364E-01
RMM:   3     0.337605671594E+02    0.40625E-02   -0.57592E-02   324   0.570E-01    0.365E-01
RMM:   4     0.337616917852E+02    0.11246E-02   -0.35785E-03   351   0.144E-01    0.337E-01
RMM:   5     0.337639800713E+02    0.22883E-02   -0.42629E-03   307   0.111E-01    0.187E-01
RMM:   6     0.337641792904E+02    0.19922E-03   -0.96604E-03   308   0.169E-01    0.698E-02
RMM:   7     0.337644464407E+02    0.26715E-03   -0.93436E-04   280   0.586E-02    0.376E-02
RMM:   8     0.337643452634E+02   -0.10118E-03   -0.63599E-04   274   0.426E-02    0.540E-02
RMM:   9     0.337644671391E+02    0.12188E-03   -0.32213E-04   207   0.337E-02    0.830E-03
RMM:  10     0.337644627102E+02   -0.44289E-05   -0.78404E-05   178   0.207E-02
    9 T=  4075. E= 0.50621623E+02 F= 0.33764463E+02 E0= 0.33764463E+02  EK= 0.16857E+02 SP= 0.00E+00 SK= 0.00E+00
       N       E                     dE             d eps       ncg     rms          rms(c)
DAV:   1     0.322510425533E+02   -0.15134E+01   -0.35176E+01   308   0.165E+01    0.111E+00
RMM:   2     0.319797357856E+02   -0.27131E+00   -0.29982E+00   308   0.388E+00    0.432E-01
RMM:   3     0.319822700238E+02    0.25342E-02   -0.89055E-02   329   0.694E-01    0.458E-01
RMM:   4     0.319840400556E+02    0.17700E-02   -0.51423E-03   350   0.172E-01    0.428E-01
RMM:   5     0.319880686061E+02    0.40286E-02   -0.84082E-03   308   0.156E-01    0.219E-01
RMM:   6     0.319880031740E+02   -0.65432E-04   -0.17432E-02   308   0.228E-01    0.108E-01
RMM:   7     0.319887076767E+02    0.70450E-03   -0.17750E-03   292   0.791E-02    0.331E-02
RMM:   8     0.319885521511E+02   -0.15553E-03   -0.14149E-03   277   0.632E-02    0.629E-02
RMM:   9     0.319887210333E+02    0.16888E-03   -0.59226E-04   263   0.435E-02    0.322E-03
RMM:  10     0.319887166061E+02   -0.44272E-05   -0.43768E-05   179   0.167E-02
   10 T=  3570. E= 0.46757236E+02 F= 0.31988717E+02 E0= 0.31988717E+02  EK= 0.14769E+02 SP= 0.00E+00 SK= 0.00E+00
       N       E                     dE             d eps       ncg     rms          rms(c)
DAV:   1     0.308741089779E+02   -0.11146E+01   -0.75194E+01   308   0.208E+01    0.128E+00
RMM:   2     0.305409847787E+02   -0.33312E+00   -0.37632E+00   308   0.435E+00    0.470E-01
RMM:   3     0.305393794453E+02   -0.16053E-02   -0.13319E-01   344   0.807E-01    0.562E-01
RMM:   4     0.305426006158E+02    0.32212E-02   -0.50598E-03   317   0.180E-01    0.505E-01
RMM:   5     0.305502103025E+02    0.76097E-02   -0.32743E-02   308   0.307E-01    0.102E-01
RMM:   6     0.305489700931E+02   -0.12402E-02   -0.11992E-02   308   0.196E-01    0.145E-01
RMM:   7     0.305500789530E+02    0.11089E-02   -0.62990E-03   307   0.134E-01    0.429E-02
RMM:   8     0.305501515637E+02    0.72611E-04   -0.13480E-04   180   0.291E-02
   11 T=  3839. E= 0.46431320E+02 F= 0.30550152E+02 E0= 0.30550152E+02  EK= 0.15881E+02 SP= 0.00E+00 SK= 0.00E+00
       N       E                     dE             d eps       ncg     rms          rms(c)
DAV:   1     0.303497843005E+02   -0.20029E+00   -0.60704E+01   308   0.196E+01    0.124E+00
RMM:   2     0.300308132044E+02   -0.31897E+00   -0.35799E+00   308   0.427E+00    0.464E-01
RMM:   3     0.300306695381E+02   -0.14367E-03   -0.12382E-01   339   0.781E-01    0.532E-01
RMM:   4     0.300338169690E+02    0.31474E-02   -0.50844E-03   325   0.179E-01    0.473E-01
RMM:   5     0.300402153674E+02    0.63984E-02   -0.27995E-02   308   0.285E-01    0.100E-01
RMM:   6     0.300392557724E+02   -0.95959E-03   -0.96744E-03   308   0.176E-01    0.128E-01
RMM:   7     0.300400680970E+02    0.81232E-03   -0.53200E-03   308   0.125E-01    0.497E-02
RMM:   8     0.300401668929E+02    0.98796E-04   -0.15898E-04   180   0.301E-02
   12 T=  4155. E= 0.47227654E+02 F= 0.30040167E+02 E0= 0.30040167E+02  EK= 0.17187E+02 SP= 0.00E+00 SK= 0.00E+00
       N       E                     dE             d eps       ncg     rms          rms(c)
DAV:   1     0.297808106340E+02   -0.25926E+00   -0.23741E+01   308   0.150E+01    0.105E+00
RMM:   2     0.295350933711E+02   -0.24572E+00   -0.26913E+00   308   0.369E+00    0.395E-01
RMM:   3     0.295389486090E+02    0.38552E-02   -0.73453E-02   323   0.635E-01    0.407E-01
RMM:   4     0.295402768243E+02    0.13282E-02   -0.42523E-03   346   0.157E-01    0.375E-01
RMM:   5     0.295431327425E+02    0.28559E-02   -0.58719E-03   308   0.130E-01    0.195E-01
RMM:   6     0.295432786794E+02    0.14594E-03   -0.99394E-03   308   0.171E-01    0.716E-02
RMM:   7     0.295435384463E+02    0.25977E-03   -0.15834E-03   290   0.721E-02    0.484E-02
RMM:   8     0.295435365985E+02   -0.18478E-05   -0.11391E-04   181   0.241E-02
   13 T=  4263. E= 0.47176693E+02 F= 0.29543537E+02 E0= 0.29543537E+02  EK= 0.17633E+02 SP= 0.00E+00 SK= 0.00E+00
       N       E                     dE             d eps       ncg     rms          rms(c)
DAV:   1     0.288469791545E+02   -0.69656E+00   -0.18558E+01   308   0.137E+01    0.964E-01
RMM:   2     0.286275110506E+02   -0.21947E+00   -0.24053E+00   308   0.345E+00    0.365E-01
RMM:   3     0.286315520133E+02    0.40410E-02   -0.59077E-02   319   0.584E-01    0.367E-01
RMM:   4     0.286326938711E+02    0.11419E-02   -0.37609E-03   347   0.148E-01    0.341E-01
RMM:   5     0.286346250023E+02    0.19311E-02   -0.24659E-03   300   0.844E-02    0.226E-01
RMM:   6     0.286353263470E+02    0.70134E-03   -0.11187E-02   308   0.177E-01    0.578E-02
RMM:   7     0.286354700200E+02    0.14367E-03   -0.51814E-04   242   0.469E-02    0.380E-02
RMM:   8     0.286353935976E+02   -0.76422E-04   -0.48633E-04   252   0.372E-02
   14 T=  4146. E= 0.45785775E+02 F= 0.28635394E+02 E0= 0.28635394E+02  EK= 0.17150E+02 SP= 0.00E+00 SK= 0.00E+00
       N       E                     dE             d eps       ncg     rms          rms(c)
DAV:   1     0.278811010444E+02   -0.75437E+00   -0.59889E+01   332   0.184E+01    0.119E+00
RMM:   2     0.275812705473E+02   -0.29983E+00   -0.33799E+00   308   0.401E+00    0.429E-01
RMM:   3     0.275818500962E+02    0.57955E-03   -0.11203E-01   333   0.728E-01    0.502E-01
RMM:   4     0.275847268007E+02    0.28767E-02   -0.47625E-03   333   0.167E-01    0.449E-01
RMM:   5     0.275902676267E+02    0.55408E-02   -0.14800E-02   308   0.201E-01    0.177E-01
RMM:   6     0.275903633385E+02    0.95712E-04   -0.10848E-02   308   0.178E-01    0.672E-02
RMM:   7     0.275905833870E+02    0.22005E-03   -0.17845E-03   286   0.749E-02    0.432E-02
RMM:   8     0.275906324648E+02    0.49078E-04   -0.49099E-05   180   0.187E-02
   15 T=  3960. E= 0.43972417E+02 F= 0.27590632E+02 E0= 0.27590632E+02  EK= 0.16382E+02 SP= 0.00E+00 SK= 0.00E+00
       N       E                     dE             d eps       ncg     rms          rms(c)
DAV:   1     0.268519518867E+02   -0.73863E+00   -0.46835E+01   308   0.177E+01    0.117E+00
RMM:   2     0.265686475332E+02   -0.28330E+00   -0.31727E+00   308   0.396E+00    0.426E-01
RMM:   3     0.265700893035E+02    0.14418E-02   -0.10063E-01   328   0.720E-01    0.473E-01
RMM:   4     0.265723381067E+02    0.22488E-02   -0.49238E-03   335   0.173E-01    0.431E-01
RMM:   5     0.265771596721E+02    0.48216E-02   -0.13037E-02   308   0.192E-01    0.172E-01
RMM:   6     0.265767359366E+02   -0.42374E-03   -0.13789E-02   308   0.203E-01    0.109E-01
RMM:   7     0.265774360733E+02    0.70014E-03   -0.32872E-03   300   0.984E-02    0.391E-02
RMM:   8     0.265774368736E+02    0.80028E-06   -0.17855E-04   182   0.302E-02
   16 T=  3954. E= 0.42930921E+02 F= 0.26577437E+02 E0= 0.26577437E+02  EK= 0.16353E+02 SP= 0.00E+00 SK= 0.00E+00
       N       E                     dE             d eps       ncg     rms          rms(c)
DAV:   1     0.256273803133E+02   -0.95006E+00   -0.31033E+01   308   0.156E+01    0.107E+00
RMM:   2     0.253807704671E+02   -0.24661E+00   -0.27414E+00   308   0.368E+00    0.396E-01
RMM:   3     0.253838201875E+02    0.30497E-02   -0.76825E-02   323   0.654E-01    0.418E-01
RMM:   4     0.253852832212E+02    0.14630E-02   -0.45898E-03   346   0.163E-01    0.396E-01
RMM:   5     0.253883518623E+02    0.30686E-02   -0.41481E-03   307   0.110E-01    0.252E-01
RMM:   6     0.253890255152E+02    0.67365E-03   -0.19986E-02   308   0.238E-01    0.942E-02
RMM:   7     0.253895527446E+02    0.52723E-03   -0.10829E-03   287   0.654E-02    0.341E-02
RMM:   8     0.253892526444E+02   -0.30010E-03   -0.24530E-03   284   0.809E-02    0.889E-02
RMM:   9     0.253895749104E+02    0.32227E-03   -0.10394E-03   280   0.551E-02    0.598E-03
RMM:  10     0.253895703824E+02   -0.45280E-05   -0.40410E-05   179   0.165E-02
   17 T=  4110. E= 0.42391411E+02 F= 0.25389570E+02 E0= 0.25389570E+02  EK= 0.17002E+02 SP= 0.00E+00 SK= 0.00E+00
       N       E                     dE             d eps       ncg     rms          rms(c)
DAV:   1     0.243826740164E+02   -0.10069E+01   -0.27037E+01   308   0.150E+01    0.104E+00
RMM:   2     0.241420294915E+02   -0.24064E+00   -0.26561E+00   308   0.361E+00    0.382E-01
RMM:   3     0.241456815479E+02    0.36521E-02   -0.72104E-02   319   0.633E-01    0.397E-01
RMM:   4     0.241469817770E+02    0.13002E-02   -0.46023E-03   356   0.161E-01    0.375E-01
RMM:   5     0.241494764260E+02    0.24946E-02   -0.29201E-03   302   0.927E-02    0.251E-01
RMM:   6     0.241503955279E+02    0.91910E-03   -0.15899E-02   308   0.213E-01    0.740E-02
RMM:   7     0.241506748231E+02    0.27930E-03   -0.54110E-04   247   0.506E-02    0.342E-02
RMM:   8     0.241504639184E+02   -0.21090E-03   -0.16131E-03   280   0.658E-02    0.780E-02
RMM:   9     0.241506911106E+02    0.22719E-03   -0.71684E-04   257   0.461E-02    0.523E-03
RMM:  10     0.241506838128E+02   -0.72978E-05   -0.18136E-05   178   0.126E-02
   18 T=  4363. E= 0.42198944E+02 F= 0.24150684E+02 E0= 0.24150684E+02  EK= 0.18048E+02 SP= 0.00E+00 SK= 0.00E+00
       N       E                     dE             d eps       ncg     rms          rms(c)
DAV:   1     0.231048410595E+02   -0.10459E+01   -0.18498E+01   308   0.144E+01    0.104E+00
RMM:   2     0.228636591834E+02   -0.24118E+00   -0.26234E+00   308   0.362E+00    0.386E-01
RMM:   3     0.228683945243E+02    0.47353E-02   -0.62062E-02   317   0.608E-01    0.384E-01
RMM:   4     0.228693390873E+02    0.94456E-03   -0.41404E-03   351   0.154E-01    0.368E-01
RMM:   5     0.228709596017E+02    0.16205E-02   -0.12191E-03   292   0.627E-02    0.288E-01
RMM:   6     0.228722047846E+02    0.12452E-02   -0.17635E-02   308   0.225E-01    0.789E-02
RMM:   7     0.228724782154E+02    0.27343E-03   -0.35597E-04   210   0.468E-02    0.464E-02
RMM:   8     0.228721378274E+02   -0.34039E-03   -0.28161E-03   288   0.872E-02    0.106E-01
RMM:   9     0.228724999153E+02    0.36209E-03   -0.10302E-03   284   0.565E-02    0.839E-03
RMM:  10     0.228724870494E+02   -0.12866E-04   -0.13787E-05   179   0.113E-02
   19 T=  4258. E= 0.40485128E+02 F= 0.22872487E+02 E0= 0.22872487E+02  EK= 0.17613E+02 SP= 0.00E+00 SK= 0.00E+00
       N       E                     dE             d eps       ncg     rms          rms(c)
DAV:   1     0.219915663025E+02   -0.88093E+00   -0.42574E+01   308   0.174E+01    0.115E+00
RMM:   2     0.217080464148E+02   -0.28352E+00   -0.31534E+00   308   0.395E+00    0.416E-01
RMM:   3     0.217104229703E+02    0.23766E-02   -0.94393E-02   330   0.706E-01    0.458E-01
RMM:   4     0.217121158588E+02    0.16929E-02   -0.51574E-03   341   0.171E-01    0.434E-01
RMM:   5     0.217158500798E+02    0.37342E-02   -0.47624E-03   308   0.119E-01    0.277E-01
RMM:   6     0.217169481738E+02    0.10981E-02   -0.22608E-02   308   0.256E-01    0.926E-02
RMM:   7     0.217174456344E+02    0.49746E-03   -0.89881E-04   281   0.638E-02    0.337E-02
RMM:   8     0.217170431416E+02   -0.40249E-03   -0.28934E-03   291   0.890E-02    0.101E-01
RMM:   9     0.217174647364E+02    0.42159E-03   -0.14423E-03   286   0.650E-02    0.423E-03
RMM:  10     0.217174594907E+02   -0.52457E-05   -0.30843E-05   178   0.156E-02
   20 T=  4183. E= 0.39019714E+02 F= 0.21717459E+02 E0= 0.21717459E+02  EK= 0.17302E+02 SP= 0.00E+00 SK= 0.00E+00
       N       E                     dE             d eps       ncg     rms          rms(c)
DAV:   1     0.212638358789E+02   -0.45363E+00   -0.23813E+01   308   0.149E+01    0.106E+00
RMM:   2     0.210190315058E+02   -0.24480E+00   -0.26893E+00   308   0.365E+00    0.395E-01
RMM:   3     0.210229685118E+02    0.39370E-02   -0.72318E-02   321   0.638E-01    0.405E-01
RMM:   4     0.210241135506E+02    0.11450E-02   -0.44920E-03   350   0.160E-01    0.387E-01
RMM:   5     0.210265737423E+02    0.24602E-02   -0.27761E-03   303   0.922E-02    0.265E-01
RMM:   6     0.210275265819E+02    0.95284E-03   -0.16921E-02   308   0.223E-01    0.805E-02
RMM:   7     0.210278654523E+02    0.33887E-03   -0.85987E-04   279   0.600E-02    0.385E-02
RMM:   8     0.210276236255E+02   -0.24183E-03   -0.15066E-03   278   0.650E-02    0.829E-02
RMM:   9     0.210278852083E+02    0.26158E-03   -0.84954E-04   278   0.511E-02    0.645E-03
RMM:  10     0.210278809398E+02   -0.42685E-05   -0.24983E-05   180   0.139E-02
   21 T=  3010. E= 0.33478388E+02 F= 0.21027881E+02 E0= 0.21027881E+02  EK= 0.12451E+02 SP= 0.00E+00 SK= 0.00E+00
       N       E                     dE             d eps       ncg     rms          rms(c)
DAV:   1     0.208387213128E+02   -0.18916E+00   -0.59955E+01   308   0.186E+01    0.117E+00
RMM:   2     0.205704375407E+02   -0.26828E+00   -0.30458E+00   308   0.391E+00    0.412E-01
RMM:   3     0.205695641136E+02   -0.87343E-03   -0.10456E-01   338   0.721E-01    0.496E-01
RMM:   4     0.205721257177E+02    0.25616E-02   -0.41081E-03   310   0.161E-01    0.449E-01
RMM:   5     0.205782493581E+02    0.61236E-02   -0.22692E-02   308   0.253E-01    0.115E-01
RMM:   6     0.205775080420E+02   -0.74132E-03   -0.10444E-02   308   0.179E-01    0.111E-01
RMM:   7     0.205782558582E+02    0.74782E-03   -0.27109E-03   298   0.893E-02    0.212E-02
RMM:   8     0.205782614423E+02    0.55842E-05   -0.84761E-05   180   0.231E-02
   22 T=  2891. E= 0.32534373E+02 F= 0.20578261E+02 E0= 0.20578261E+02  EK= 0.11956E+02 SP= 0.00E+00 SK= 0.00E+00
       N       E                     dE             d eps       ncg     rms          rms(c)
DAV:   1     0.198817997383E+02   -0.69646E+00   -0.20902E+01   308   0.128E+01    0.871E-01
RMM:   2     0.197150173215E+02   -0.16678E+00   -0.18598E+00   308   0.301E+00    0.322E-01
RMM:   3     0.197177668781E+02    0.27496E-02   -0.51620E-02   319   0.529E-01    0.339E-01
RMM:   4     0.197188560334E+02    0.10892E-02   -0.29961E-03   340   0.130E-01    0.313E-01
RMM:   5     0.197212638477E+02    0.24078E-02   -0.56064E-03   308   0.126E-01    0.146E-01
RMM:   6     0.197212045053E+02   -0.59342E-04   -0.79208E-03   308   0.152E-01    0.714E-02
RMM:   7     0.197215031599E+02    0.29865E-03   -0.13480E-03   282   0.648E-02    0.311E-02
RMM:   8     0.197214679434E+02   -0.35216E-04   -0.21897E-04   186   0.291E-02
   23 T=  2655. E= 0.30702770E+02 F= 0.19721468E+02 E0= 0.19721468E+02  EK= 0.10981E+02 SP= 0.00E+00 SK= 0.00E+00
       N       E                     dE             d eps       ncg     rms          rms(c)
DAV:   1     0.190638908733E+02   -0.65761E+00   -0.31366E+01   308   0.144E+01    0.909E-01
RMM:   2     0.188845088901E+02   -0.17938E+00   -0.20141E+00   308   0.312E+00    0.335E-01
RMM:   3     0.188856658388E+02    0.11569E-02   -0.64868E-02   330   0.567E-01    0.380E-01
RMM:   4     0.188870667376E+02    0.14009E-02   -0.30130E-03   333   0.131E-01    0.351E-01
RMM:   5     0.188905161409E+02    0.34494E-02   -0.98928E-03   308   0.166E-01    0.131E-01
RMM:   6     0.188902795102E+02   -0.23663E-03   -0.83992E-03   308   0.157E-01    0.814E-02
RMM:   7     0.188906524850E+02    0.37297E-03   -0.20086E-03   290   0.777E-02    0.313E-02
RMM:   8     0.188906302651E+02   -0.22220E-04   -0.15399E-04   181   0.269E-02
   24 T=  3127. E= 0.31823283E+02 F= 0.18890630E+02 E0= 0.18890630E+02  EK= 0.12933E+02 SP= 0.00E+00 SK= 0.00E+00
       N       E                     dE             d eps       ncg     rms          rms(c)
DAV:   1     0.182897121806E+02   -0.60094E+00   -0.23997E+01   308   0.136E+01    0.901E-01
RMM:   2     0.181073062051E+02   -0.18241E+00   -0.20378E+00   308   0.313E+00    0.334E-01
RMM:   3     0.181107700971E+02    0.34639E-02   -0.56710E-02   319   0.548E-01    0.354E-01
RMM:   4     0.181119659635E+02    0.11959E-02   -0.31869E-03   339   0.132E-01    0.332E-01
RMM:   5     0.181147689832E+02    0.28030E-02   -0.54856E-03   308   0.125E-01    0.170E-01
RMM:   6     0.181150948097E+02    0.32583E-03   -0.79886E-03   308   0.152E-01    0.560E-02
RMM:   7     0.181152214314E+02    0.12662E-03   -0.68281E-04   266   0.493E-02    0.364E-02
RMM:   8     0.181150506465E+02   -0.17078E-03   -0.74817E-04   274   0.457E-02    0.688E-02
RMM:   9     0.181152479149E+02    0.19727E-03   -0.56740E-04   258   0.409E-02    0.101E-02
RMM:  10     0.181152455530E+02   -0.23619E-05   -0.47078E-05   179   0.166E-02
   25 T=  2960. E= 0.30358544E+02 F= 0.18115246E+02 E0= 0.18115246E+02  EK= 0.12243E+02 SP= 0.00E+00 SK= 0.00E+00
       N       E                     dE             d eps       ncg     rms          rms(c)
DAV:   1     0.176162701920E+02   -0.49898E+00   -0.21226E+01   308   0.131E+01    0.866E-01
RMM:   2     0.174448406990E+02   -0.17143E+00   -0.19003E+00   308   0.303E+00    0.325E-01
RMM:   3     0.174479169686E+02    0.30763E-02   -0.53870E-02   318   0.534E-01    0.341E-01
RMM:   4     0.174488286251E+02    0.91166E-03   -0.32572E-03   346   0.133E-01    0.324E-01
RMM:   5     0.174512252934E+02    0.23967E-02   -0.40832E-03   307   0.108E-01    0.182E-01
RMM:   6     0.174514668531E+02    0.24156E-03   -0.11160E-02   308   0.179E-01    0.787E-02
RMM:   7     0.174518005503E+02    0.33370E-03   -0.10124E-03   282   0.597E-02    0.271E-02
RMM:   8     0.174515840385E+02   -0.21651E-03   -0.12505E-03   277   0.593E-02    0.728E-02
RMM:   9     0.174518129375E+02    0.22890E-03   -0.65088E-04   266   0.444E-02    0.898E-03
RMM:  10     0.174518105369E+02   -0.24007E-05   -0.58214E-05   179   0.178E-02
   26 T=  2666. E= 0.28479765E+02 F= 0.17451811E+02 E0= 0.17451811E+02  EK= 0.11028E+02 SP= 0.00E+00 SK= 0.00E+00
       N       E                     dE             d eps       ncg     rms          rms(c)
DAV:   1     0.170929816773E+02   -0.35883E+00   -0.29149E+01   308   0.142E+01    0.935E-01
RMM:   2     0.169096413465E+02   -0.18334E+00   -0.20554E+00   308   0.318E+00    0.337E-01
RMM:   3     0.169115442425E+02    0.19029E-02   -0.62021E-02   328   0.567E-01    0.374E-01
RMM:   4     0.169128064908E+02    0.12622E-02   -0.30669E-03   337   0.133E-01    0.350E-01
RMM:   5     0.169158807063E+02    0.30742E-02   -0.61514E-03   308   0.133E-01    0.176E-01
RMM:   6     0.169160876332E+02    0.20693E-03   -0.10435E-02   308   0.175E-01    0.709E-02
RMM:   7     0.169163747130E+02    0.28708E-03   -0.99842E-04   280   0.591E-02    0.275E-02
RMM:   8     0.169162406668E+02   -0.13405E-03   -0.75237E-04   276   0.466E-02    0.588E-02
RMM:   9     0.169163916568E+02    0.15099E-03   -0.51214E-04   251   0.394E-02    0.393E-03
RMM:  10     0.169163881871E+02   -0.34697E-05   -0.35528E-05   176   0.154E-02
   27 T=  2641. E= 0.27841622E+02 F= 0.16916388E+02 E0= 0.16916388E+02  EK= 0.10925E+02 SP= 0.00E+00 SK= 0.00E+00
       N       E                     dE             d eps       ncg     rms          rms(c)
DAV:   1     0.167190496439E+02   -0.19734E+00   -0.51100E+01   308   0.172E+01    0.106E+00
RMM:   2     0.164895387093E+02   -0.22951E+00   -0.25957E+00   308   0.359E+00    0.382E-01
RMM:   3     0.164895967326E+02    0.58023E-04   -0.88804E-02   337   0.648E-01    0.456E-01
RMM:   4     0.164915270604E+02    0.19303E-02   -0.34001E-03   319   0.143E-01    0.421E-01
RMM:   5     0.164969117747E+02    0.53847E-02   -0.19970E-02   308   0.236E-01    0.110E-01
RMM:   6     0.164957637247E+02   -0.11480E-02   -0.12911E-02   308   0.196E-01    0.142E-01
RMM:   7     0.164969116548E+02    0.11479E-02   -0.28068E-03   301   0.921E-02    0.246E-02
RMM:   8     0.164969049604E+02   -0.66944E-05   -0.52020E-04   252   0.411E-02
   28 T=  2919. E= 0.28572463E+02 F= 0.16496905E+02 E0= 0.16496905E+02  EK= 0.12076E+02 SP= 0.00E+00 SK= 0.00E+00
       N       E                     dE             d eps       ncg     rms          rms(c)
DAV:   1     0.161270437766E+02   -0.36987E+00   -0.22429E+01   308   0.130E+01    0.859E-01
RMM:   2     0.159604604180E+02   -0.16658E+00   -0.18457E+00   308   0.300E+00    0.309E-01
RMM:   3     0.159628913215E+02    0.24309E-02   -0.52346E-02   317   0.521E-01    0.333E-01
RMM:   4     0.159635815026E+02    0.69018E-03   -0.33089E-03   345   0.132E-01    0.327E-01
RMM:   5     0.159654186925E+02    0.18372E-02   -0.17938E-03   286   0.711E-02    0.237E-01
RMM:   6     0.159663120656E+02    0.89337E-03   -0.17234E-02   308   0.214E-01    0.812E-02
RMM:   7     0.159666748755E+02    0.36281E-03   -0.52392E-04   248   0.502E-02    0.306E-02
RMM:   8     0.159663802596E+02   -0.29462E-03   -0.25732E-03   284   0.816E-02    0.876E-02
RMM:   9     0.159666958044E+02    0.31554E-03   -0.83282E-04   263   0.488E-02    0.101E-02
RMM:  10     0.159666889724E+02   -0.68320E-05   -0.21333E-05   175   0.131E-02
   29 T=  2774. E= 0.27441464E+02 F= 0.15966689E+02 E0= 0.15966689E+02  EK= 0.11475E+02 SP= 0.00E+00 SK= 0.00E+00
       N       E                     dE             d eps       ncg     rms          rms(c)
DAV:   1     0.154706199089E+02   -0.49608E+00   -0.34133E+01   308   0.150E+01    0.985E-01
RMM:   2     0.152685575560E+02   -0.20206E+00   -0.22630E+00   308   0.334E+00    0.356E-01
RMM:   3     0.152700510891E+02    0.14935E-02   -0.69076E-02   320   0.600E-01    0.396E-01
RMM:   4     0.152713691979E+02    0.13181E-02   -0.36949E-03   333   0.147E-01    0.375E-01
RMM:   5     0.152748464529E+02    0.34773E-02   -0.63984E-03   308   0.135E-01    0.197E-01
RMM:   6     0.152749317925E+02    0.85340E-04   -0.15275E-02   308   0.210E-01    0.961E-02
RMM:   7     0.152754886986E+02    0.55691E-03   -0.11356E-03   278   0.637E-02    0.260E-02
RMM:   8     0.152753042956E+02   -0.18440E-03   -0.17223E-03   279   0.687E-02    0.679E-02
RMM:   9     0.152755020045E+02    0.19771E-03   -0.70048E-04   272   0.458E-02    0.250E-03
RMM:  10     0.152754993025E+02   -0.27020E-05   -0.18139E-05   175   0.125E-02
   30 T=  2520. E= 0.25697801E+02 F= 0.15275499E+02 E0= 0.15275499E+02  EK= 0.10422E+02 SP= 0.00E+00 SK= 0.00E+00
       N       E                     dE             d eps       ncg     rms          rms(c)
DAV:   1     0.148946320677E+02   -0.38087E+00   -0.33880E+01   308   0.148E+01    0.975E-01
RMM:   2     0.147034121006E+02   -0.19122E+00   -0.21498E+00   308   0.327E+00    0.350E-01
RMM:   3     0.147041810228E+02    0.76892E-03   -0.68297E-02   327   0.592E-01    0.398E-01
RMM:   4     0.147052490026E+02    0.10680E-02   -0.34972E-03   353   0.141E-01    0.387E-01
RMM:   5     0.147080774026E+02    0.28284E-02   -0.33609E-03   306   0.986E-02    0.260E-01
RMM:   6     0.147089247393E+02    0.84734E-03   -0.22962E-02   308   0.254E-01    0.102E-01
RMM:   7     0.147095066779E+02    0.58194E-03   -0.70902E-04   278   0.587E-02    0.390E-02
RMM:   8     0.147092804662E+02   -0.22621E-03   -0.32188E-03   289   0.932E-02    0.819E-02
RMM:   9     0.147095614846E+02    0.28102E-03   -0.11587E-03   280   0.583E-02    0.800E-03
RMM:  10     0.147095640439E+02    0.25593E-05   -0.15714E-05   179   0.115E-02
   31 T=  3032. E= 0.27250216E+02 F= 0.14709564E+02 E0= 0.14709564E+02  EK= 0.12541E+02 SP= 0.00E+00 SK= 0.00E+00
       N       E                     dE             d eps       ncg     rms          rms(c)
DAV:   1     0.144020747159E+02   -0.30749E+00   -0.52472E+01   308   0.175E+01    0.109E+00
RMM:   2     0.141580295049E+02   -0.24405E+00   -0.27451E+00   308   0.370E+00    0.377E-01
RMM:   3     0.141584956933E+02    0.46619E-03   -0.90044E-02   333   0.658E-01    0.449E-01
RMM:   4     0.141600992751E+02    0.16036E-02   -0.38899E-03   330   0.150E-01    0.426E-01
RMM:   5     0.141648988838E+02    0.47996E-02   -0.94775E-03   308   0.163E-01    0.206E-01
RMM:   6     0.141648211244E+02   -0.77759E-04   -0.19602E-02   308   0.237E-01    0.117E-01
RMM:   7     0.141656234053E+02    0.80228E-03   -0.14771E-03   292   0.728E-02    0.259E-02
RMM:   8     0.141654339982E+02   -0.18941E-03   -0.19550E-03   283   0.736E-02    0.679E-02
RMM:   9     0.141656296215E+02    0.19562E-03   -0.92310E-04   276   0.520E-02    0.899E-03
RMM:  10     0.141656334185E+02    0.37969E-05   -0.19805E-05   175   0.128E-02
   32 T=  2820. E= 0.25831249E+02 F= 0.14165633E+02 E0= 0.14165633E+02  EK= 0.11666E+02 SP= 0.00E+00 SK= 0.00E+00
       N       E                     dE             d eps       ncg     rms          rms(c)
DAV:   1     0.138134997150E+02   -0.35213E+00   -0.24627E+01   312   0.132E+01    0.847E-01
RMM:   2     0.136540619650E+02   -0.15944E+00   -0.17756E+00   308   0.289E+00    0.312E-01
RMM:   3     0.136558320027E+02    0.17700E-02   -0.53902E-02   320   0.522E-01    0.342E-01
RMM:   4     0.136567394888E+02    0.90749E-03   -0.30566E-03   340   0.129E-01    0.327E-01
RMM:   5     0.136590942252E+02    0.23547E-02   -0.36141E-03   305   0.998E-02    0.194E-01
RMM:   6     0.136595994275E+02    0.50520E-03   -0.10904E-02   308   0.173E-01    0.603E-02
RMM:   7     0.136598062893E+02    0.20686E-03   -0.72966E-04   274   0.520E-02    0.284E-02
RMM:   8     0.136596071034E+02   -0.19919E-03   -0.98270E-04   278   0.514E-02    0.705E-02
RMM:   9     0.136598191645E+02    0.21206E-03   -0.78939E-04   275   0.470E-02    0.316E-03
RMM:  10     0.136598153902E+02   -0.37743E-05   -0.25886E-05   179   0.136E-02
   33 T=  3049. E= 0.26270483E+02 F= 0.13659815E+02 E0= 0.13659815E+02  EK= 0.12611E+02 SP= 0.00E+00 SK= 0.00E+00
       N       E                     dE             d eps       ncg     rms          rms(c)
DAV:   1     0.133085211504E+02   -0.35130E+00   -0.43090E+01   308   0.162E+01    0.104E+00
RMM:   2     0.130864894623E+02   -0.22203E+00   -0.25060E+00   308   0.350E+00    0.359E-01
RMM:   3     0.130870970462E+02    0.60758E-03   -0.82086E-02   328   0.635E-01    0.424E-01
RMM:   4     0.130884746126E+02    0.13776E-02   -0.39021E-03   339   0.148E-01    0.407E-01
RMM:   5     0.130921319898E+02    0.36574E-02   -0.49772E-03   307   0.118E-01    0.251E-01
RMM:   6     0.130929559630E+02    0.82397E-03   -0.21882E-02   308   0.247E-01    0.937E-02
RMM:   7     0.130934795708E+02    0.52361E-03   -0.81770E-04   274   0.606E-02    0.295E-02
RMM:   8     0.130933124432E+02   -0.16713E-03   -0.19891E-03   280   0.729E-02    0.661E-02
RMM:   9     0.130935029860E+02    0.19054E-03   -0.80667E-04   272   0.481E-02    0.612E-03
RMM:  10     0.130935030585E+02    0.72570E-07   -0.16682E-05   175   0.115E-02
   34 T=  3117. E= 0.25986825E+02 F= 0.13093503E+02 E0= 0.13093503E+02  EK= 0.12893E+02 SP= 0.00E+00 SK= 0.00E+00
       N       E                     dE             d eps       ncg     rms          rms(c)
DAV:   1     0.128155140874E+02   -0.27799E+00   -0.25764E+01   308   0.140E+01    0.939E-01
RMM:   2     0.126233871894E+02   -0.19213E+00   -0.21386E+00   308   0.324E+00    0.345E-01
RMM:   3     0.126262236105E+02    0.28364E-02   -0.61091E-02   319   0.571E-01    0.369E-01
RMM:   4     0.126273969262E+02    0.11733E-02   -0.35195E-03   346   0.140E-01    0.349E-01
RMM:   5     0.126300242653E+02    0.26273E-02   -0.39966E-03   307   0.108E-01    0.208E-01
RMM:   6     0.126305135379E+02    0.48927E-03   -0.12469E-02   308   0.190E-01    0.707E-02
RMM:   7     0.126307915999E+02    0.27806E-03   -0.81308E-04   278   0.557E-02    0.294E-02
RMM:   8     0.126305608894E+02   -0.23071E-03   -0.13071E-03   276   0.602E-02    0.750E-02
RMM:   9     0.126308047326E+02    0.24384E-03   -0.80432E-04   276   0.485E-02    0.596E-03
RMM:  10     0.126308008851E+02   -0.38475E-05   -0.32616E-05   178   0.149E-02
   35 T=  2848. E= 0.24412432E+02 F= 0.12630801E+02 E0= 0.12630801E+02  EK= 0.11782E+02 SP= 0.00E+00 SK= 0.00E+00
       N       E                     dE             d eps       ncg     rms          rms(c)
DAV:   1     0.124149389974E+02   -0.21587E+00   -0.30113E+01   316   0.143E+01    0.942E-01
RMM:   2     0.122316852705E+02   -0.18325E+00   -0.20599E+00   308   0.318E+00    0.328E-01
RMM:   3     0.122330545700E+02    0.13693E-02   -0.62137E-02   318   0.572E-01    0.370E-01
RMM:   4     0.122340797201E+02    0.10252E-02   -0.36307E-03   346   0.141E-01    0.360E-01
RMM:   5     0.122359071356E+02    0.18274E-02   -0.11792E-03   284   0.607E-02    0.284E-01
RMM:   6     0.122378773703E+02    0.19702E-02   -0.17726E-02   308   0.223E-01    0.499E-02
RMM:   7     0.122379583280E+02    0.80958E-04   -0.22835E-04   186   0.438E-02
   36 T=  2816. E= 0.23884238E+02 F= 0.12237958E+02 E0= 0.12237958E+02  EK= 0.11646E+02 SP= 0.00E+00 SK= 0.00E+00
       N       E                     dE             d eps       ncg     rms          rms(c)
DAV:   1     0.121616673414E+02   -0.76210E-01   -0.35056E+01   308   0.152E+01    0.961E-01
RMM:   2     0.119545496768E+02   -0.20712E+00   -0.23267E+00   308   0.337E+00    0.392E-01
RMM:   3     0.119564761918E+02    0.19265E-02   -0.71568E-02   324   0.604E-01    0.425E-01
RMM:   4     0.119599420087E+02    0.34658E-02   -0.36345E-03   309   0.144E-01    0.313E-01
RMM:   5     0.119622336926E+02    0.22917E-02   -0.18436E-02   308   0.227E-01    0.566E-02
RMM:   6     0.119620685077E+02   -0.16518E-03   -0.12351E-03   279   0.706E-02    0.712E-02
RMM:   7     0.119621721363E+02    0.10363E-03   -0.37103E-03   302   0.987E-02    0.619E-02
RMM:   8     0.119623503186E+02    0.17818E-03   -0.46443E-04   242   0.382E-02    0.331E-03
RMM:   9     0.119623437811E+02   -0.65376E-05   -0.58872E-05   177   0.180E-02
   37 T=  2942. E= 0.24130702E+02 F= 0.11962344E+02 E0= 0.11962344E+02  EK= 0.12168E+02 SP= 0.00E+00 SK= 0.00E+00
       N       E                     dE             d eps       ncg     rms          rms(c)
DAV:   1     0.117949675868E+02   -0.16738E+00   -0.73016E+00   312   0.103E+01    0.771E-01
RMM:   2     0.116622297283E+02   -0.13274E+00   -0.14458E+00   308   0.270E+00    0.258E-01
RMM:   3     0.116660302637E+02    0.38005E-02   -0.30770E-02   310   0.431E-01    0.251E-01
RMM:   4     0.116669846502E+02    0.95439E-03   -0.18684E-03   324   0.104E-01    0.200E-01
RMM:   5     0.116678607186E+02    0.87607E-03   -0.27118E-03   306   0.888E-02    0.771E-02
RMM:   6     0.116678638189E+02    0.31003E-05   -0.11156E-03   278   0.594E-02    0.271E-02
RMM:   7     0.116678232178E+02   -0.40601E-04   -0.47689E-04   242   0.384E-02
   38 T=  2959. E= 0.23908039E+02 F= 0.11667823E+02 E0= 0.11667823E+02  EK= 0.12240E+02 SP= 0.00E+00 SK= 0.00E+00
       N       E                     dE             d eps       ncg     rms          rms(c)
DAV:   1     0.115822773107E+02   -0.85587E-01   -0.55888E+01   308   0.182E+01    0.119E+00
RMM:   2     0.113205891010E+02   -0.26169E+00   -0.29753E+00   308   0.389E+00    0.387E-01
RMM:   3     0.113196089361E+02   -0.98016E-03   -0.10049E-01   338   0.720E-01    0.479E-01
RMM:   4     0.113212705796E+02    0.16616E-02   -0.43221E-03   327   0.160E-01    0.457E-01
RMM:   5     0.113250784172E+02    0.38078E-02   -0.34464E-03   307   0.102E-01    0.322E-01
RMM:   6     0.113272401596E+02    0.21617E-02   -0.28801E-02   308   0.287E-01    0.810E-02
RMM:   7     0.113275645273E+02    0.32437E-03   -0.37913E-04   227   0.554E-02    0.463E-02
RMM:   8     0.113274293445E+02   -0.13518E-03   -0.31393E-03   297   0.918E-02    0.759E-02
RMM:   9     0.113276584337E+02    0.22909E-03   -0.10391E-03   279   0.551E-02    0.115E-02
RMM:  10     0.113276657101E+02    0.72764E-05   -0.13352E-05   180   0.109E-02
   39 T=  2958. E= 0.23564560E+02 F= 0.11327666E+02 E0= 0.11327666E+02  EK= 0.12237E+02 SP= 0.00E+00 SK= 0.00E+00
       N       E                     dE             d eps       ncg     rms          rms(c)
DAV:   1     0.113619171602E+02    0.34259E-01   -0.36734E+01   308   0.154E+01    0.102E+00
RMM:   2     0.111512869644E+02   -0.21063E+00   -0.23726E+00   308   0.340E+00    0.353E-01
RMM:   3     0.111526358998E+02    0.13489E-02   -0.74471E-02   324   0.615E-01    0.404E-01
RMM:   4     0.111540694083E+02    0.14335E-02   -0.37013E-03   347   0.145E-01    0.381E-01
RMM:   5     0.111572634341E+02    0.31940E-02   -0.45817E-03   305   0.114E-01    0.229E-01
RMM:   6     0.111580171114E+02    0.75368E-03   -0.15848E-02   308   0.211E-01    0.730E-02
RMM:   7     0.111583433449E+02    0.32623E-03   -0.65729E-04   268   0.537E-02    0.248E-02
RMM:   8     0.111581554002E+02   -0.18794E-03   -0.15044E-03   277   0.635E-02    0.689E-02
RMM:   9     0.111583541206E+02    0.19872E-03   -0.81259E-04   272   0.482E-02    0.392E-03
RMM:  10     0.111583528562E+02   -0.12644E-05   -0.15549E-05   175   0.118E-02
   40 T=  3026. E= 0.23675312E+02 F= 0.11158353E+02 E0= 0.11158353E+02  EK= 0.12517E+02 SP= 0.00E+00 SK= 0.00E+00
       N       E                     dE             d eps       ncg     rms          rms(c)
DAV:   1     0.110859223452E+02   -0.72432E-01   -0.11800E+01   308   0.114E+01    0.808E-01
RMM:   2     0.109326144542E+02   -0.15331E+00   -0.16752E+00   308   0.287E+00    0.299E-01
RMM:   3     0.109365669183E+02    0.39525E-02   -0.39353E-02   309   0.483E-01    0.296E-01
RMM:   4     0.109371776838E+02    0.61077E-03   -0.28422E-03   347   0.123E-01    0.286E-01
RMM:   5     0.109384899499E+02    0.13123E-02   -0.12880E-03   291   0.631E-02    0.208E-01
RMM:   6     0.109392646930E+02    0.77474E-03   -0.80066E-03   308   0.151E-01    0.541E-02
RMM:   7     0.109393160900E+02    0.51397E-04   -0.13623E-04   180   0.314E-02
   41 T=  2965. E= 0.23202926E+02 F= 0.10939316E+02 E0= 0.10939316E+02  EK= 0.12264E+02 SP= 0.00E+00 SK= 0.00E+00
       N       E                     dE             d eps       ncg     rms          rms(c)
DAV:   1     0.107782904938E+02   -0.16097E+00   -0.16136E+01   308   0.120E+01    0.758E-01
RMM:   2     0.106264744285E+02   -0.15182E+00   -0.16744E+00   308   0.286E+00    0.347E-01
RMM:   3     0.106297266420E+02    0.32522E-02   -0.43802E-02   312   0.495E-01    0.342E-01
RMM:   4     0.106321907542E+02    0.24641E-02   -0.30866E-03   308   0.126E-01    0.223E-01
RMM:   5     0.106331089145E+02    0.91816E-03   -0.79721E-03   308   0.151E-01    0.523E-02
RMM:   6     0.106331276324E+02    0.18718E-04   -0.20534E-04   183   0.388E-02
   42 T=  2772. E= 0.22099263E+02 F= 0.10633128E+02 E0= 0.10633128E+02  EK= 0.11466E+02 SP= 0.00E+00 SK= 0.00E+00
       N       E                     dE             d eps       ncg     rms          rms(c)
DAV:   1     0.105628821289E+02   -0.70227E-01   -0.36668E+01   308   0.156E+01    0.105E+00
RMM:   2     0.103519026466E+02   -0.21098E+00   -0.23854E+00   308   0.347E+00    0.356E-01
RMM:   3     0.103529629916E+02    0.10603E-02   -0.73274E-02   328   0.625E-01    0.407E-01
RMM:   4     0.103545467552E+02    0.15838E-02   -0.35453E-03   326   0.145E-01    0.377E-01
RMM:   5     0.103579761210E+02    0.34294E-02   -0.57263E-03   308   0.129E-01    0.202E-01
RMM:   6     0.103584841145E+02    0.50799E-03   -0.11911E-02   308   0.187E-01    0.636E-02
RMM:   7     0.103587045994E+02    0.22048E-03   -0.91662E-04   277   0.578E-02    0.357E-02
RMM:   8     0.103585603235E+02   -0.14428E-03   -0.63608E-04   272   0.434E-02    0.653E-02
RMM:   9     0.103587314970E+02    0.17117E-03   -0.63238E-04   266   0.434E-02    0.312E-03
RMM:  10     0.103587277727E+02   -0.37244E-05   -0.20628E-05   178   0.130E-02
   43 T=  2614. E= 0.21173096E+02 F= 0.10358728E+02 E0= 0.10358728E+02  EK= 0.10814E+02 SP= 0.00E+00 SK= 0.00E+00
       N       E                     dE             d eps       ncg     rms          rms(c)
DAV:   1     0.102626170546E+02   -0.96114E-01   -0.38190E+01   308   0.153E+01    0.965E-01
RMM:   2     0.100725664810E+02   -0.19005E+00   -0.21440E+00   308   0.324E+00    0.327E-01
RMM:   3     0.100735188320E+02    0.95235E-03   -0.67922E-02   325   0.587E-01    0.383E-01
RMM:   4     0.100745971148E+02    0.10783E-02   -0.36755E-03   335   0.141E-01    0.372E-01
RMM:   5     0.100774212456E+02    0.28241E-02   -0.29399E-03   305   0.930E-02    0.251E-01
RMM:   6     0.100784161844E+02    0.99494E-03   -0.21716E-02   308   0.247E-01    0.923E-02
RMM:   7     0.100788737938E+02    0.45761E-03   -0.36990E-04   223   0.493E-02    0.434E-02
RMM:   8     0.100788211809E+02   -0.52613E-04   -0.22075E-03   284   0.771E-02    0.567E-02
RMM:   9     0.100789350795E+02    0.11390E-03   -0.65464E-04   262   0.439E-02    0.140E-02
RMM:  10     0.100789472192E+02    0.12140E-04   -0.40525E-05   179   0.142E-02
   44 T=  2679. E= 0.21161022E+02 F= 0.10078947E+02 E0= 0.10078947E+02  EK= 0.11082E+02 SP= 0.00E+00 SK= 0.00E+00
       N       E                     dE             d eps       ncg     rms          rms(c)
DAV:   1     0.100267677819E+02   -0.52167E-01   -0.35263E+01   308   0.149E+01    0.995E-01
RMM:   2     0.983248103783E+01   -0.19429E+00   -0.21831E+00   308   0.330E+00    0.331E-01
RMM:   3     0.983297560164E+01    0.49456E-03   -0.68415E-02   323   0.595E-01    0.386E-01
RMM:   4     0.983409677062E+01    0.11212E-02   -0.36457E-03   344   0.146E-01    0.371E-01
RMM:   5     0.983610238087E+01    0.20056E-02   -0.14380E-03   289   0.659E-02    0.285E-01
RMM:   6     0.983806054477E+01    0.19582E-02   -0.15539E-02   308   0.208E-01    0.444E-02
RMM:   7     0.983808193996E+01    0.21395E-04   -0.24389E-04   191   0.438E-02
   45 T=  2720. E= 0.21088771E+02 F= 0.98380819E+01 E0= 0.98380819E+01  EK= 0.11251E+02 SP= 0.00E+00 SK= 0.00E+00
       N       E                     dE             d eps       ncg     rms          rms(c)
DAV:   1     0.972699659782E+01   -0.11106E+00   -0.12411E+01   308   0.113E+01    0.739E-01
RMM:   2     0.958140360794E+01   -0.14559E+00   -0.15780E+00   308   0.280E+00    0.332E-01
RMM:   3     0.958506279131E+01    0.36592E-02   -0.38385E-02   315   0.469E-01    0.325E-01
RMM:   4     0.958656948289E+01    0.15067E-02   -0.22208E-03   316   0.113E-01    0.259E-01
RMM:   5     0.958804893447E+01    0.14795E-02   -0.57872E-03   308   0.129E-01    0.810E-02
RMM:   6     0.958795271040E+01   -0.96224E-04   -0.17187E-03   280   0.753E-02    0.429E-02
RMM:   7     0.958788499196E+01   -0.67718E-04   -0.17567E-03   288   0.696E-02    0.644E-02
RMM:   8     0.958804671469E+01    0.16172E-03   -0.27788E-04   198   0.316E-02    0.145E-02
RMM:   9     0.958804485651E+01   -0.18582E-05   -0.12629E-04   181   0.246E-02
   46 T=  2932. E= 0.21714322E+02 F= 0.95880449E+01 E0= 0.95880449E+01  EK= 0.12126E+02 SP= 0.00E+00 SK= 0.00E+00
       N       E                     dE             d eps       ncg     rms          rms(c)
DAV:   1     0.959673115727E+01    0.86844E-02   -0.40021E+01   308   0.158E+01    0.106E+00
RMM:   2     0.937833245753E+01   -0.21840E+00   -0.24678E+00   308   0.350E+00    0.359E-01
RMM:   3     0.937931637335E+01    0.98392E-03   -0.77622E-02   323   0.629E-01    0.415E-01
RMM:   4     0.938049637076E+01    0.11800E-02   -0.40780E-03   351   0.152E-01    0.404E-01
RMM:   5     0.938334818348E+01    0.28518E-02   -0.27617E-03   301   0.894E-02    0.287E-01
RMM:   6     0.938439011224E+01    0.10419E-02   -0.29397E-02   308   0.285E-01    0.119E-01
RMM:   7     0.938517640456E+01    0.78629E-03   -0.88741E-04   279   0.645E-02    0.465E-02
RMM:   8     0.938500261659E+01   -0.17379E-03   -0.35515E-03   299   0.977E-02    0.798E-02
RMM:   9     0.938526374279E+01    0.26113E-03   -0.97513E-04   278   0.538E-02    0.703E-03
RMM:  10     0.938526380712E+01    0.64334E-07   -0.23438E-05   179   0.125E-02
   47 T=  2943. E= 0.21557359E+02 F= 0.93852638E+01 E0= 0.93852638E+01  EK= 0.12172E+02 SP= 0.00E+00 SK= 0.00E+00
       N       E                     dE             d eps       ncg     rms          rms(c)
DAV:   1     0.920490246619E+01   -0.18036E+00   -0.17007E+01   308   0.123E+01    0.858E-01
RMM:   2     0.904456923040E+01   -0.16033E+00   -0.17684E+00   308   0.297E+00    0.307E-01
RMM:   3     0.904747947034E+01    0.29102E-02   -0.45071E-02   310   0.514E-01    0.316E-01
RMM:   4     0.904813301741E+01    0.65355E-03   -0.31472E-03   348   0.132E-01    0.310E-01
RMM:   5     0.904941825552E+01    0.12852E-02   -0.91310E-04   279   0.545E-02    0.243E-01
RMM:   6     0.905051649624E+01    0.10982E-02   -0.13197E-02   308   0.192E-01    0.608E-02
RMM:   7     0.905066841268E+01    0.15192E-03   -0.17971E-04   182   0.367E-02    0.383E-02
RMM:   8     0.905056670866E+01   -0.10170E-03   -0.10357E-03   277   0.523E-02    0.665E-02
RMM:   9     0.905068353657E+01    0.11683E-03   -0.24452E-04   194   0.303E-02    0.118E-02
RMM:  10     0.905067267692E+01   -0.10860E-04   -0.18626E-05   179   0.135E-02
   48 T=  2962. E= 0.21302358E+02 F= 0.90506727E+01 E0= 0.90506727E+01  EK= 0.12252E+02 SP= 0.00E+00 SK= 0.00E+00
       N       E                     dE             d eps       ncg     rms          rms(c)
DAV:   1     0.897015126411E+01   -0.80532E-01   -0.33350E+01   308   0.155E+01    0.106E+00
RMM:   2     0.875115043633E+01   -0.21900E+00   -0.24354E+00   308   0.355E+00    0.367E-01
RMM:   3     0.875237375709E+01    0.12233E-02   -0.71970E-02   319   0.637E-01    0.402E-01
RMM:   4     0.875328563648E+01    0.91188E-03   -0.44234E-03   358   0.159E-01    0.398E-01
RMM:   5     0.875496677748E+01    0.16811E-02   -0.89304E-04   282   0.548E-02    0.333E-01
RMM:   6     0.875700313683E+01    0.20364E-02   -0.29166E-02   308   0.288E-01    0.999E-02
RMM:   7     0.875745909433E+01    0.45596E-03   -0.40310E-04   233   0.544E-02    0.524E-02
RMM:   8     0.875725416183E+01   -0.20493E-03   -0.39177E-03   304   0.103E-01    0.971E-02
RMM:   9     0.875755621429E+01    0.30205E-03   -0.11779E-03   286   0.603E-02    0.940E-03
RMM:  10     0.875755587435E+01   -0.33994E-06   -0.41978E-05   180   0.147E-02
   49 T=  2936. E= 0.20903427E+02 F= 0.87575559E+01 E0= 0.87575559E+01  EK= 0.12146E+02 SP= 0.00E+00 SK= 0.00E+00
       N       E                     dE             d eps       ncg     rms          rms(c)
DAV:   1     0.851819286916E+01   -0.23936E+00   -0.28685E+01   308   0.144E+01    0.968E-01
RMM:   2     0.832760369110E+01   -0.19059E+00   -0.21313E+00   308   0.327E+00    0.337E-01
RMM:   3     0.832903040495E+01    0.14267E-02   -0.62555E-02   318   0.588E-01    0.373E-01
RMM:   4     0.833008830801E+01    0.10579E-02   -0.36057E-03   341   0.146E-01    0.357E-01
RMM:   5     0.833222836032E+01    0.21401E-02   -0.21445E-03   295   0.790E-02    0.251E-01
RMM:   6     0.833330412802E+01    0.10758E-02   -0.15386E-02   308   0.208E-01    0.607E-02
RMM:   7     0.833352616996E+01    0.22204E-03   -0.41342E-04   235   0.463E-02    0.299E-02
RMM:   8     0.833328484043E+01   -0.24133E-03   -0.16977E-03   278   0.666E-02    0.793E-02
RMM:   9     0.833353370206E+01    0.24886E-03   -0.98572E-04   274   0.530E-02    0.319E-03
RMM:  10     0.833353141741E+01   -0.22847E-05   -0.14660E-05   179   0.118E-02
   50 T=  2657. E= 0.19324223E+02 F= 0.83335314E+01 E0= 0.83335314E+01  EK= 0.10991E+02 SP= 0.00E+00 SK= 0.00E+00
       N       E                     dE             d eps       ncg     rms          rms(c)
DAV:   1     0.808299025076E+01   -0.25054E+00   -0.19309E+01   308   0.121E+01    0.836E-01
RMM:   2     0.793851186329E+01   -0.14448E+00   -0.16202E+00   308   0.278E+00    0.286E-01
RMM:   3     0.794017182842E+01    0.16600E-02   -0.45042E-02   311   0.498E-01    0.308E-01
RMM:   4     0.794107762949E+01    0.90580E-03   -0.27086E-03   343   0.125E-01    0.290E-01
RMM:   5     0.794273722425E+01    0.16596E-02   -0.19303E-03   294   0.742E-02    0.189E-01
RMM:   6     0.794346979721E+01    0.73257E-03   -0.65185E-03   308   0.135E-01    0.372E-02
RMM:   7     0.794346281475E+01   -0.69825E-05   -0.13423E-04   182   0.295E-02
   51 T=  2673. E= 0.19001545E+02 F= 0.79434628E+01 E0= 0.79434628E+01  EK= 0.11058E+02 SP= 0.00E+00 SK= 0.00E+00
       N       E                     dE             d eps       ncg     rms          rms(c)
DAV:   1     0.767941877779E+01   -0.26405E+00   -0.12542E+01   308   0.109E+01    0.706E-01
RMM:   2     0.754792839309E+01   -0.13149E+00   -0.14538E+00   308   0.264E+00    0.319E-01
RMM:   3     0.755123700113E+01    0.33086E-02   -0.36603E-02   310   0.454E-01    0.311E-01
RMM:   4     0.755337437399E+01    0.21374E-02   -0.26296E-03   308   0.115E-01    0.200E-01
RMM:   5     0.755420299150E+01    0.82862E-03   -0.58840E-03   307   0.127E-01    0.473E-02
RMM:   6     0.755416626054E+01   -0.36731E-04   -0.39664E-04   220   0.433E-02
   52 T=  2573. E= 0.18196227E+02 F= 0.75541663E+01 E0= 0.75541663E+01  EK= 0.10642E+02 SP= 0.00E+00 SK= 0.00E+00
       N       E                     dE             d eps       ncg     rms          rms(c)
DAV:   1     0.737731357240E+01   -0.17689E+00   -0.20249E+01   308   0.125E+01    0.853E-01
RMM:   2     0.722615305463E+01   -0.15116E+00   -0.16955E+00   308   0.288E+00    0.302E-01
RMM:   3     0.722852061052E+01    0.23676E-02   -0.47041E-02   312   0.508E-01    0.319E-01
RMM:   4     0.723005316437E+01    0.15326E-02   -0.24893E-03   319   0.121E-01    0.267E-01
RMM:   5     0.723200471113E+01    0.19515E-02   -0.78390E-03   308   0.149E-01    0.695E-02
RMM:   6     0.723188059589E+01   -0.12412E-03   -0.19163E-03   281   0.788E-02    0.441E-02
RMM:   7     0.723181921418E+01   -0.61382E-04   -0.20300E-03   292   0.745E-02    0.664E-02
RMM:   8     0.723199296004E+01    0.17375E-03   -0.27596E-04   200   0.317E-02    0.159E-02
RMM:   9     0.723199270216E+01   -0.25789E-06   -0.14643E-04   180   0.260E-02
   53 T=  3069. E= 0.19924918E+02 F= 0.72319927E+01 E0= 0.72319927E+01  EK= 0.12693E+02 SP= 0.00E+00 SK= 0.00E+00
       N       E                     dE             d eps       ncg     rms          rms(c)
DAV:   1     0.716579855180E+01   -0.66194E-01   -0.30873E+01   308   0.149E+01    0.102E+00
RMM:   2     0.695946864982E+01   -0.20633E+00   -0.23185E+00   308   0.342E+00    0.342E-01
RMM:   3     0.696172957607E+01    0.22609E-02   -0.66651E-02   319   0.608E-01    0.378E-01
RMM:   4     0.696277342008E+01    0.10438E-02   -0.39367E-03   346   0.150E-01    0.367E-01
RMM:   5     0.696512706046E+01    0.23536E-02   -0.21422E-03   299   0.800E-02    0.263E-01
RMM:   6     0.696638445997E+01    0.12574E-02   -0.18811E-02   308   0.230E-01    0.750E-02
RMM:   7     0.696666613868E+01    0.28168E-03   -0.29533E-04   197   0.456E-02    0.378E-02
RMM:   8     0.696645125032E+01   -0.21489E-03   -0.24134E-03   286   0.800E-02    0.800E-02
RMM:   9     0.696669561513E+01    0.24436E-03   -0.66797E-04   267   0.452E-02    0.610E-03
RMM:  10     0.696668544011E+01   -0.10175E-04   -0.14898E-05   179   0.111E-02
   54 T=  2467. E= 0.17172379E+02 F= 0.69666854E+01 E0= 0.69666854E+01  EK= 0.10206E+02 SP= 0.00E+00 SK= 0.00E+00
       N       E                     dE             d eps       ncg     rms          rms(c)
DAV:   1     0.698673305118E+01    0.20037E-01   -0.29766E+01   308   0.140E+01    0.926E-01
RMM:   2     0.681433229435E+01   -0.17240E+00   -0.19400E+00   308   0.308E+00    0.322E-01
RMM:   3     0.681581068077E+01    0.14784E-02   -0.57824E-02   317   0.552E-01    0.362E-01
RMM:   4     0.681691126794E+01    0.11006E-02   -0.31188E-03   335   0.133E-01    0.344E-01
RMM:   5     0.681933141497E+01    0.24201E-02   -0.28018E-03   306   0.907E-02    0.225E-01
RMM:   6     0.682033594494E+01    0.10045E-02   -0.12190E-02   308   0.186E-01    0.497E-02
RMM:   7     0.682045136570E+01    0.11542E-03   -0.26300E-04   193   0.403E-02    0.254E-02
RMM:   8     0.682020032767E+01   -0.25104E-03   -0.15465E-03   276   0.647E-02    0.786E-02
RMM:   9     0.682045640169E+01    0.25607E-03   -0.97059E-04   277   0.529E-02    0.320E-03
RMM:  10     0.682045313545E+01   -0.32662E-05   -0.15024E-05   180   0.120E-02
   55 T=  2579. E= 0.17488840E+02 F= 0.68204531E+01 E0= 0.68204531E+01  EK= 0.10668E+02 SP= 0.00E+00 SK= 0.00E+00
       N       E                     dE             d eps       ncg     rms          rms(c)
DAV:   1     0.678281066861E+01   -0.37646E-01   -0.82717E+00   308   0.987E+00    0.701E-01
RMM:   2     0.666528500436E+01   -0.11753E+00   -0.12837E+00   308   0.250E+00    0.250E-01
RMM:   3     0.666855447885E+01    0.32695E-02   -0.28876E-02   308   0.407E-01    0.247E-01
RMM:   4     0.666893831475E+01    0.38384E-03   -0.20968E-03   327   0.105E-01    0.238E-01
RMM:   5     0.666978199639E+01    0.84368E-03   -0.69566E-04   250   0.470E-02    0.181E-01
RMM:   6     0.667043165441E+01    0.64966E-03   -0.52803E-03   304   0.120E-01    0.464E-02
RMM:   7     0.667043682151E+01    0.51671E-05   -0.63811E-05   180   0.231E-02
   56 T=  2758. E= 0.18078934E+02 F= 0.66704368E+01 E0= 0.66704368E+01  EK= 0.11408E+02 SP= 0.00E+00 SK= 0.00E+00
       N       E                     dE             d eps       ncg     rms          rms(c)
DAV:   1     0.677876506657E+01    0.10833E+00   -0.39326E+01   308   0.156E+01    0.104E+00
RMM:   2     0.656244356353E+01   -0.21632E+00   -0.24351E+00   308   0.350E+00    0.379E-01
RMM:   3     0.656289807667E+01    0.45451E-03   -0.75769E-02   315   0.634E-01    0.425E-01
RMM:   4     0.656560470949E+01    0.27066E-02   -0.35020E-03   321   0.148E-01    0.350E-01
RMM:   5     0.656859859441E+01    0.29939E-02   -0.83002E-03   308   0.151E-01    0.138E-01
RMM:   6     0.656871134983E+01    0.11276E-03   -0.34192E-03   300   0.103E-01    0.433E-02
RMM:   7     0.656862821175E+01   -0.83138E-04   -0.93190E-04   275   0.534E-02
   57 T=  2730. E= 0.17859031E+02 F= 0.65686282E+01 E0= 0.65686282E+01  EK= 0.11290E+02 SP= 0.00E+00 SK= 0.00E+00
       N       E                     dE             d eps       ncg     rms          rms(c)
DAV:   1     0.660915509626E+01    0.40444E-01   -0.28496E+01   308   0.141E+01    0.957E-01
RMM:   2     0.642805520319E+01   -0.18110E+00   -0.20392E+00   308   0.317E+00    0.317E-01
RMM:   3     0.643020718649E+01    0.21520E-02   -0.58829E-02   318   0.560E-01    0.353E-01
RMM:   4     0.643126199253E+01    0.10548E-02   -0.33832E-03   332   0.137E-01    0.336E-01
RMM:   5     0.643398967306E+01    0.27277E-02   -0.42662E-03   308   0.111E-01    0.189E-01
RMM:   6     0.643439615332E+01    0.40648E-03   -0.11582E-02   308   0.182E-01    0.684E-02
RMM:   7     0.643467578636E+01    0.27963E-03   -0.57563E-04   267   0.486E-02    0.269E-02
RMM:   8     0.643446240289E+01   -0.21338E-03   -0.13870E-03   277   0.621E-02    0.748E-02
RMM:   9     0.643468167017E+01    0.21927E-03   -0.63671E-04   266   0.439E-02    0.753E-03
RMM:  10     0.643467655917E+01   -0.51110E-05   -0.18633E-05   179   0.126E-02
   58 T=  2804. E= 0.18031105E+02 F= 0.64346766E+01 E0= 0.64346766E+01  EK= 0.11596E+02 SP= 0.00E+00 SK= 0.00E+00
       N       E                     dE             d eps       ncg     rms          rms(c)
DAV:   1     0.649040401342E+01    0.55722E-01   -0.25820E+01   312   0.133E+01    0.891E-01
RMM:   2     0.632339470886E+01   -0.16701E+00   -0.18601E+00   308   0.299E+00    0.307E-01
RMM:   3     0.632541592866E+01    0.20212E-02   -0.52488E-02   316   0.530E-01    0.334E-01
RMM:   4     0.632629403564E+01    0.87811E-03   -0.31158E-03   337   0.131E-01    0.321E-01
RMM:   5     0.632814111852E+01    0.18471E-02   -0.18109E-03   291   0.729E-02    0.224E-01
RMM:   6     0.632909113267E+01    0.95001E-03   -0.11775E-02   308   0.180E-01    0.499E-02
RMM:   7     0.632921900493E+01    0.12787E-03   -0.26587E-04   194   0.390E-02    0.284E-02
RMM:   8     0.632888870540E+01   -0.33030E-03   -0.19244E-03   280   0.712E-02    0.904E-02
RMM:   9     0.632922521992E+01    0.33651E-03   -0.12155E-03   280   0.582E-02    0.397E-03
RMM:  10     0.632922113574E+01   -0.40842E-05   -0.19012E-05   177   0.128E-02
   59 T=  3046. E= 0.18930531E+02 F= 0.63292211E+01 E0= 0.63292211E+01  EK= 0.12601E+02 SP= 0.00E+00 SK= 0.00E+00
       N       E                     dE             d eps       ncg     rms          rms(c)
DAV:   1     0.634629376706E+01    0.17069E-01   -0.25452E+01   308   0.138E+01    0.924E-01
RMM:   2     0.616247273708E+01   -0.18382E+00   -0.20393E+00   308   0.319E+00    0.319E-01
RMM:   3     0.616536338130E+01    0.28906E-02   -0.55186E-02   313   0.552E-01    0.342E-01
RMM:   4     0.616617113303E+01    0.80775E-03   -0.35753E-03   338   0.140E-01    0.334E-01
RMM:   5     0.616800644782E+01    0.18353E-02   -0.15190E-03   289   0.683E-02    0.248E-01
RMM:   6     0.616925748567E+01    0.12510E-02   -0.13754E-02   308   0.195E-01    0.581E-02
RMM:   7     0.616936796985E+01    0.11048E-03   -0.17008E-04   182   0.379E-02    0.349E-02
RMM:   8     0.616905488124E+01   -0.31309E-03   -0.22505E-03   287   0.767E-02    0.925E-02
RMM:   9     0.616938178245E+01    0.32690E-03   -0.81578E-04   269   0.491E-02    0.123E-02
RMM:  10     0.616937702035E+01   -0.47621E-05   -0.26745E-05   180   0.138E-02
   60 T=  2846. E= 0.17941349E+02 F= 0.61693770E+01 E0= 0.61693770E+01  EK= 0.11772E+02 SP= 0.00E+00 SK= 0.00E+00
       N       E                     dE             d eps       ncg     rms          rms(c)
DAV:   1     0.620349893883E+01    0.34117E-01   -0.18428E+01   308   0.121E+01    0.831E-01
RMM:   2     0.605342258266E+01   -0.15008E+00   -0.16671E+00   308   0.283E+00    0.293E-01
RMM:   3     0.605584498186E+01    0.24224E-02   -0.45380E-02   311   0.499E-01    0.311E-01
RMM:   4     0.605653697093E+01    0.69199E-03   -0.29059E-03   337   0.127E-01    0.300E-01
RMM:   5     0.605813344840E+01    0.15965E-02   -0.14963E-03   288   0.669E-02    0.213E-01
RMM:   6     0.605917759660E+01    0.10441E-02   -0.81588E-03   308   0.150E-01    0.453E-02
RMM:   7     0.605918343328E+01    0.58367E-05   -0.11440E-04   182   0.302E-02
   61 T=  2673. E= 0.17115978E+02 F= 0.60591834E+01 E0= 0.60591834E+01  EK= 0.11057E+02 SP= 0.00E+00 SK= 0.00E+00
       N       E                     dE             d eps       ncg     rms          rms(c)
DAV:   1     0.613192040655E+01    0.72743E-01   -0.42829E+01   308   0.160E+01    0.100E+00
RMM:   2     0.592399175172E+01   -0.20793E+00   -0.23535E+00   308   0.341E+00    0.375E-01
RMM:   3     0.592486495335E+01    0.87320E-03   -0.75998E-02   324   0.618E-01    0.425E-01
RMM:   4     0.592891429348E+01    0.40493E-02   -0.38235E-03   308   0.145E-01    0.295E-01
RMM:   5     0.593084936957E+01    0.19351E-02   -0.23221E-02   308   0.256E-01    0.795E-02
RMM:   6     0.593114141123E+01    0.29204E-03   -0.21513E-04   189   0.435E-02    0.464E-02
RMM:   7     0.593090490260E+01   -0.23651E-03   -0.37292E-03   298   0.989E-02    0.840E-02
RMM:   8     0.593122873488E+01    0.32383E-03   -0.71505E-04   271   0.458E-02    0.132E-02
RMM:   9     0.593122738764E+01   -0.13472E-05   -0.92133E-05   180   0.202E-02
   62 T=  2638. E= 0.16842029E+02 F= 0.59312274E+01 E0= 0.59312274E+01  EK= 0.10911E+02 SP= 0.00E+00 SK= 0.00E+00
       N       E                     dE             d eps       ncg     rms          rms(c)
DAV:   1     0.598213246848E+01    0.50904E-01   -0.20325E+01   308   0.124E+01    0.872E-01
RMM:   2     0.583326003862E+01   -0.14887E+00   -0.16735E+00   308   0.285E+00    0.282E-01
RMM:   3     0.583561212744E+01    0.23521E-02   -0.46147E-02   312   0.501E-01    0.306E-01
RMM:   4     0.583675983868E+01    0.11477E-02   -0.25671E-03   327   0.122E-01    0.273E-01
RMM:   5     0.583891439123E+01    0.21546E-02   -0.65771E-03   308   0.134E-01    0.907E-02
RMM:   6     0.583878959497E+01   -0.12480E-03   -0.38260E-03   297   0.106E-01    0.554E-02
RMM:   7     0.583891976164E+01    0.13017E-03   -0.11737E-03   283   0.588E-02    0.394E-02
RMM:   8     0.583893843201E+01    0.18670E-04   -0.30710E-05   179   0.150E-02
   63 T=  2740. E= 0.17173985E+02 F= 0.58389384E+01 E0= 0.58389384E+01  EK= 0.11335E+02 SP= 0.00E+00 SK= 0.00E+00
       N       E                     dE             d eps       ncg     rms          rms(c)
DAV:   1     0.592626854335E+01    0.87349E-01   -0.26593E+01   308   0.138E+01    0.934E-01
RMM:   2     0.575061471820E+01   -0.17565E+00   -0.19745E+00   308   0.314E+00    0.313E-01
RMM:   3     0.575246442306E+01    0.18497E-02   -0.56452E-02   313   0.555E-01    0.347E-01
RMM:   4     0.575345083212E+01    0.98641E-03   -0.32892E-03   337   0.138E-01    0.332E-01
RMM:   5     0.575553067692E+01    0.20798E-02   -0.20106E-03   298   0.771E-02    0.229E-01
RMM:   6     0.575654233005E+01    0.10117E-02   -0.12095E-02   308   0.184E-01    0.511E-02
RMM:   7     0.575665911016E+01    0.11678E-03   -0.16420E-04   181   0.360E-02    0.292E-02
RMM:   8     0.575638110394E+01   -0.27801E-03   -0.20341E-03   284   0.725E-02    0.855E-02
RMM:   9     0.575667223751E+01    0.29113E-03   -0.76462E-04   266   0.470E-02    0.117E-02
RMM:  10     0.575666815493E+01   -0.40826E-05   -0.27211E-05   180   0.139E-02
   64 T=  2692. E= 0.16889813E+02 F= 0.57566682E+01 E0= 0.57566682E+01  EK= 0.11133E+02 SP= 0.00E+00 SK= 0.00E+00
       N       E                     dE             d eps       ncg     rms          rms(c)
DAV:   1     0.584204798592E+01    0.85376E-01   -0.22012E+01   316   0.124E+01    0.836E-01
RMM:   2     0.569348834190E+01   -0.14856E+00   -0.16566E+00   308   0.280E+00    0.286E-01
RMM:   3     0.569530176057E+01    0.18134E-02   -0.47358E-02   313   0.495E-01    0.317E-01
RMM:   4     0.569614120627E+01    0.83945E-03   -0.26801E-03   334   0.124E-01    0.300E-01
RMM:   5     0.569758127448E+01    0.14401E-02   -0.11593E-03   281   0.580E-02    0.222E-01
RMM:   6     0.569875409213E+01    0.11728E-02   -0.75892E-03   308   0.143E-01    0.422E-02
RMM:   7     0.569872991005E+01   -0.24182E-04   -0.95603E-05   182   0.289E-02
   65 T=  2647. E= 0.16648544E+02 F= 0.56987299E+01 E0= 0.56987299E+01  EK= 0.10950E+02 SP= 0.00E+00 SK= 0.00E+00
       N       E                     dE             d eps       ncg     rms          rms(c)
DAV:   1     0.583482747147E+01    0.13607E+00   -0.38310E+01   308   0.155E+01    0.967E-01
RMM:   2     0.563722864061E+01   -0.19760E+00   -0.22288E+00   308   0.332E+00    0.355E-01
RMM:   3     0.563826624866E+01    0.10376E-02   -0.70552E-02   322   0.598E-01    0.403E-01
RMM:   4     0.564102630550E+01    0.27601E-02   -0.30605E-03   313   0.137E-01    0.324E-01
RMM:   5     0.564402431387E+01    0.29980E-02   -0.16447E-02   308   0.214E-01    0.544E-02
RMM:   6     0.564378129745E+01   -0.24302E-03   -0.20152E-03   282   0.840E-02    0.648E-02
RMM:   7     0.564380445621E+01    0.23159E-04   -0.32617E-03   301   0.937E-02    0.690E-02
RMM:   8     0.564400558948E+01    0.20113E-03   -0.23248E-04   187   0.297E-02    0.212E-02
RMM:   9     0.564401231574E+01    0.67263E-05   -0.18193E-04   182   0.279E-02
   66 T=  2597. E= 0.16385702E+02 F= 0.56440123E+01 E0= 0.56440123E+01  EK= 0.10742E+02 SP= 0.00E+00 SK= 0.00E+00
       N       E                     dE             d eps       ncg     rms          rms(c)
DAV:   1     0.579035083694E+01    0.14635E+00   -0.40509E+01   308   0.156E+01    0.104E+00
RMM:   2     0.558999471848E+01   -0.20036E+00   -0.22928E+00   308   0.336E+00    0.331E-01
RMM:   3     0.559035639159E+01    0.36167E-03   -0.72974E-02   316   0.613E-01    0.394E-01
RMM:   4     0.559156148865E+01    0.12051E-02   -0.38883E-03   335   0.150E-01    0.381E-01
RMM:   5     0.559424960799E+01    0.26881E-02   -0.22259E-03   301   0.808E-02    0.272E-01
RMM:   6     0.559580638552E+01    0.15568E-02   -0.20463E-02   308   0.238E-01    0.687E-02
RMM:   7     0.559604344313E+01    0.23706E-03   -0.22158E-04   184   0.438E-02    0.382E-02
RMM:   8     0.559593831613E+01   -0.10513E-03   -0.21391E-03   283   0.751E-02    0.662E-02
RMM:   9     0.559610851129E+01    0.17020E-03   -0.49212E-04   245   0.390E-02    0.609E-03
RMM:  10     0.559610566500E+01   -0.28463E-05   -0.18194E-05   178   0.128E-02
   67 T=  2646. E= 0.16540367E+02 F= 0.55961057E+01 E0= 0.55961057E+01  EK= 0.10944E+02 SP= 0.00E+00 SK= 0.00E+00
       N       E                     dE             d eps       ncg     rms          rms(c)
DAV:   1     0.564120830795E+01    0.45100E-01   -0.13790E+01   308   0.108E+01    0.735E-01
RMM:   2     0.551428868225E+01   -0.12692E+00   -0.13910E+00   308   0.259E+00    0.264E-01
RMM:   3     0.551669568762E+01    0.24070E-02   -0.35863E-02   310   0.436E-01    0.275E-01
RMM:   4     0.551717858554E+01    0.48290E-03   -0.22979E-03   331   0.112E-01    0.268E-01
RMM:   5     0.551825596855E+01    0.10774E-02   -0.87755E-04   260   0.510E-02    0.203E-01
RMM:   6     0.551909818710E+01    0.84222E-03   -0.83600E-03   308   0.147E-01    0.429E-02
RMM:   7     0.551914409051E+01    0.45903E-04   -0.10062E-04   182   0.276E-02
   68 T=  2966. E= 0.17787227E+02 F= 0.55191441E+01 E0= 0.55191441E+01  EK= 0.12268E+02 SP= 0.00E+00 SK= 0.00E+00
       N       E                     dE             d eps       ncg     rms          rms(c)
DAV:   1     0.562639675786E+01    0.10730E+00   -0.21451E+01   308   0.128E+01    0.819E-01
RMM:   2     0.545957864170E+01   -0.16682E+00   -0.18374E+00   308   0.299E+00    0.343E-01
RMM:   3     0.546246583326E+01    0.28872E-02   -0.49441E-02   311   0.514E-01    0.346E-01
RMM:   4     0.546498342013E+01    0.25176E-02   -0.30120E-03   310   0.127E-01    0.238E-01
RMM:   5     0.546625605744E+01    0.12726E-02   -0.86584E-03   308   0.152E-01    0.510E-02
RMM:   6     0.546622801915E+01   -0.28038E-04   -0.40508E-04   217   0.450E-02
   69 T=  3051. E= 0.18085868E+02 F= 0.54662280E+01 E0= 0.54662280E+01  EK= 0.12620E+02 SP= 0.00E+00 SK= 0.00E+00
       N       E                     dE             d eps       ncg     rms          rms(c)
DAV:   1     0.557865483211E+01    0.11240E+00   -0.25702E+01   308   0.141E+01    0.980E-01
RMM:   2     0.538033402720E+01   -0.19832E+00   -0.21973E+00   308   0.332E+00    0.351E-01
RMM:   3     0.538263714845E+01    0.23031E-02   -0.59359E-02   310   0.584E-01    0.370E-01
RMM:   4     0.538400463143E+01    0.13675E-02   -0.34088E-03   332   0.143E-01    0.338E-01
RMM:   5     0.538633484953E+01    0.23302E-02   -0.34167E-03   305   0.994E-02    0.199E-01
RMM:   6     0.538690798983E+01    0.57314E-03   -0.82750E-03   308   0.154E-01    0.482E-02
RMM:   7     0.538696524178E+01    0.57252E-04   -0.69561E-04   265   0.496E-02
   70 T=  3058. E= 0.18036502E+02 F= 0.53869652E+01 E0= 0.53869652E+01  EK= 0.12650E+02 SP= 0.00E+00 SK= 0.00E+00
       N       E                     dE             d eps       ncg     rms          rms(c)
DAV:   1     0.552412262569E+01    0.13721E+00   -0.21806E+01   308   0.132E+01    0.887E-01
RMM:   2     0.534482303093E+01   -0.17930E+00   -0.19921E+00   308   0.311E+00    0.350E-01
RMM:   3     0.534798001357E+01    0.31570E-02   -0.53248E-02   315   0.543E-01    0.361E-01
RMM:   4     0.535024865200E+01    0.22686E-02   -0.28199E-03   313   0.128E-01    0.280E-01
RMM:   5     0.535226063138E+01    0.20120E-02   -0.84620E-03   308   0.154E-01    0.763E-02
RMM:   6     0.535213352967E+01   -0.12710E-03   -0.19401E-03   282   0.797E-02    0.461E-02
RMM:   7     0.535203806791E+01   -0.95462E-04   -0.21794E-03   290   0.771E-02    0.708E-02
RMM:   8     0.535223933385E+01    0.20127E-03   -0.29329E-04   205   0.319E-02    0.203E-02
RMM:   9     0.535224523799E+01    0.59041E-05   -0.14285E-04   181   0.256E-02
   71 T=  3088. E= 0.18124584E+02 F= 0.53522452E+01 E0= 0.53522452E+01  EK= 0.12772E+02 SP= 0.00E+00 SK= 0.00E+00
       N       E                     dE             d eps       ncg     rms          rms(c)
DAV:   1     0.547448051234E+01    0.12224E+00   -0.30673E+01   308   0.149E+01    0.102E+00
RMM:   2     0.527050216350E+01   -0.20398E+00   -0.22837E+00   308   0.338E+00    0.341E-01
RMM:   3     0.527233185191E+01    0.18297E-02   -0.64818E-02   314   0.601E-01    0.376E-01
RMM:   4     0.527313366337E+01    0.80181E-03   -0.41722E-03   354   0.152E-01    0.376E-01
RMM:   5     0.527490722467E+01    0.17736E-02   -0.10423E-03   282   0.583E-02    0.307E-01
RMM:   6     0.527643506003E+01    0.15278E-02   -0.29178E-02   308   0.285E-01    0.112E-01
RMM:   7     0.527705654864E+01    0.62149E-03   -0.46220E-04   246   0.548E-02    0.543E-02
RMM:   8     0.527706606455E+01    0.95159E-05   -0.21181E-03   282   0.759E-02    0.618E-02
RMM:   9     0.527714718546E+01    0.81121E-04   -0.38623E-04   222   0.372E-02
   72 T=  3236. E= 0.18663019E+02 F= 0.52771472E+01 E0= 0.52771472E+01  EK= 0.13386E+02 SP= 0.00E+00 SK= 0.00E+00
       N       E                     dE             d eps       ncg     rms          rms(c)
DAV:   1     0.533312474133E+01    0.56059E-01   -0.15410E+01   308   0.122E+01    0.841E-01
RMM:   2     0.516982391808E+01   -0.16330E+00   -0.17867E+00   308   0.297E+00    0.302E-01
RMM:   3     0.517324836998E+01    0.34245E-02   -0.42709E-02   308   0.496E-01    0.305E-01
RMM:   4     0.517393629669E+01    0.68793E-03   -0.28561E-03   328   0.127E-01    0.290E-01
RMM:   5     0.517527547721E+01    0.13392E-02   -0.12406E-03   281   0.613E-02    0.209E-01
RMM:   6     0.517604179836E+01    0.76632E-03   -0.83892E-03   307   0.151E-01    0.480E-02
RMM:   7     0.517611205504E+01    0.70257E-04   -0.17210E-04   184   0.323E-02
   73 T=  3135. E= 0.18143525E+02 F= 0.51761121E+01 E0= 0.51761121E+01  EK= 0.12967E+02 SP= 0.00E+00 SK= 0.00E+00
       N       E                     dE             d eps       ncg     rms          rms(c)
DAV:   1     0.535247032043E+01    0.17643E+00   -0.28645E+01   308   0.149E+01    0.101E+00
RMM:   2     0.513970542184E+01   -0.21276E+00   -0.23409E+00   308   0.345E+00    0.386E-01
RMM:   3     0.514165801175E+01    0.19526E-02   -0.64710E-02   312   0.609E-01    0.401E-01
RMM:   4     0.514374722683E+01    0.20892E-02   -0.33596E-03   319   0.145E-01    0.334E-01
RMM:   5     0.514623388105E+01    0.24867E-02   -0.75990E-03   308   0.147E-01    0.122E-01
RMM:   6     0.514619861752E+01   -0.35264E-04   -0.31391E-03   297   0.100E-01    0.455E-02
RMM:   7     0.514607340519E+01   -0.12521E-03   -0.20673E-03   284   0.746E-02    0.785E-02
RMM:   8     0.514629238614E+01    0.21898E-03   -0.32368E-04   208   0.337E-02    0.226E-02
RMM:   9     0.514629946309E+01    0.70770E-05   -0.16802E-04   183   0.273E-02
   74 T=  3376. E= 0.19110827E+02 F= 0.51462995E+01 E0= 0.51462995E+01  EK= 0.13965E+02 SP= 0.00E+00 SK= 0.00E+00
       N       E                     dE             d eps       ncg     rms          rms(c)
DAV:   1     0.530661696686E+01    0.16032E+00   -0.41107E+01   308   0.164E+01    0.114E+00
RMM:   2     0.506784046242E+01   -0.23878E+00   -0.27000E+00   308   0.367E+00    0.358E-01
RMM:   3     0.506897796732E+01    0.11375E-02   -0.80157E-02   310   0.661E-01    0.409E-01
RMM:   4     0.507005070053E+01    0.10727E-02   -0.50044E-03   349   0.170E-01    0.404E-01
RMM:   5     0.507251377608E+01    0.24631E-02   -0.14735E-03   292   0.674E-02    0.316E-01
RMM:   6     0.507457528227E+01    0.20615E-02   -0.28189E-02   308   0.279E-01    0.930E-02
RMM:   7     0.507501820032E+01    0.44292E-03   -0.44056E-04   245   0.552E-02    0.423E-02
RMM:   8     0.507503013479E+01    0.11934E-04   -0.10703E-03   275   0.541E-02    0.506E-02
RMM:   9     0.507506294681E+01    0.32812E-04   -0.32433E-04   212   0.332E-02
   75 T=  3118. E= 0.17972653E+02 F= 0.50750629E+01 E0= 0.50750629E+01  EK= 0.12898E+02 SP= 0.00E+00 SK= 0.00E+00
       N       E                     dE             d eps       ncg     rms          rms(c)
DAV:   1     0.520082802049E+01    0.12580E+00   -0.31235E+01   308   0.149E+01    0.101E+00
RMM:   2     0.499874845400E+01   -0.20208E+00   -0.22667E+00   308   0.335E+00    0.343E-01
RMM:   3     0.500014947991E+01    0.14010E-02   -0.65744E-02   317   0.598E-01    0.381E-01
RMM:   4     0.500125426235E+01    0.11048E-02   -0.37476E-03   332   0.148E-01    0.366E-01
RMM:   5     0.500322469572E+01    0.19704E-02   -0.14118E-03   290   0.663E-02    0.279E-01
RMM:   6     0.500486325975E+01    0.16386E-02   -0.16963E-02   308   0.218E-01    0.553E-02
RMM:   7     0.500499603653E+01    0.13278E-03   -0.17669E-04   183   0.390E-02    0.363E-02
RMM:   8     0.500470914075E+01   -0.28690E-03   -0.24062E-03   286   0.792E-02    0.925E-02
RMM:   9     0.500501851201E+01    0.30937E-03   -0.11219E-03   280   0.566E-02    0.662E-03
RMM:  10     0.500501673960E+01   -0.17724E-05   -0.13021E-05   179   0.113E-02
   76 T=  3363. E= 0.18916129E+02 F= 0.50050167E+01 E0= 0.50050167E+01  EK= 0.13911E+02 SP= 0.00E+00 SK= 0.00E+00
       N       E                     dE             d eps       ncg     rms          rms(c)
DAV:   1     0.524706357528E+01    0.24205E+00   -0.56850E+01   308   0.181E+01    0.123E+00
RMM:   2     0.497334100899E+01   -0.27372E+00   -0.31226E+00   308   0.392E+00    0.386E-01
RMM:   3     0.497287755272E+01   -0.46346E-03   -0.10116E-01   318   0.718E-01    0.468E-01
RMM:   4     0.497471500884E+01    0.18375E-02   -0.50933E-03   335   0.173E-01    0.446E-01
RMM:   5     0.497782038449E+01    0.31054E-02   -0.20078E-03   298   0.770E-02    0.342E-01
RMM:   6     0.498098925168E+01    0.31689E-02   -0.21717E-02   308   0.245E-01    0.483E-02
RMM:   7     0.498096389941E+01   -0.25352E-04   -0.49513E-04   237   0.550E-02
   77 T=  3423. E= 0.19138075E+02 F= 0.49809639E+01 E0= 0.49809639E+01  EK= 0.14157E+02 SP= 0.00E+00 SK= 0.00E+00
       N       E                     dE             d eps       ncg     rms          rms(c)
DAV:   1     0.518919947409E+01    0.20821E+00   -0.20582E+01   308   0.133E+01    0.880E-01
RMM:   2     0.500137093635E+01   -0.18783E+00   -0.20697E+00   308   0.316E+00    0.367E-01
RMM:   3     0.500473149855E+01    0.33606E-02   -0.53980E-02   313   0.546E-01    0.371E-01
RMM:   4     0.500690515470E+01    0.21737E-02   -0.29456E-03   310   0.131E-01    0.292E-01
RMM:   5     0.500890271143E+01    0.19976E-02   -0.75200E-03   307   0.143E-01    0.934E-02
RMM:   6     0.500882997333E+01   -0.72738E-04   -0.19509E-03   283   0.793E-02    0.433E-02
RMM:   7     0.500868317366E+01   -0.14680E-03   -0.20645E-03   289   0.730E-02    0.754E-02
RMM:   8     0.500891097106E+01    0.22780E-03   -0.44404E-04   224   0.370E-02    0.161E-02
RMM:   9     0.500891021235E+01   -0.75872E-06   -0.13872E-04   182   0.251E-02
   78 T=  3528. E= 0.19601248E+02 F= 0.50089102E+01 E0= 0.50089102E+01  EK= 0.14592E+02 SP= 0.00E+00 SK= 0.00E+00
       N       E                     dE             d eps       ncg     rms          rms(c)
DAV:   1     0.524050638984E+01    0.23160E+00   -0.29937E+01   308   0.149E+01    0.105E+00
RMM:   2     0.502741041599E+01   -0.21310E+00   -0.23930E+00   308   0.342E+00    0.334E-01
RMM:   3     0.502998871039E+01    0.25783E-02   -0.66228E-02   314   0.604E-01    0.367E-01
RMM:   4     0.503072952790E+01    0.74082E-03   -0.44360E-03   342   0.156E-01    0.364E-01
RMM:   5     0.503275160727E+01    0.20221E-02   -0.14369E-03   288   0.669E-02    0.282E-01
RMM:   6     0.503408844344E+01    0.13368E-02   -0.25362E-02   308   0.264E-01    0.105E-01
RMM:   7     0.503464569265E+01    0.55725E-03   -0.48416E-04   247   0.536E-02    0.467E-02
RMM:   8     0.503462038667E+01   -0.25306E-04   -0.16681E-03   282   0.675E-02    0.591E-02
RMM:   9     0.503470843970E+01    0.88053E-04   -0.28356E-04   201   0.325E-02
[...]
RMM:   5     0.943521275269E+00    0.92957E-03   -0.32988E-03   297   0.936E-02    0.605E-02
RMM:   6     0.943523468777E+00    0.21935E-05   -0.70261E-04   251   0.496E-02
  627 T=  2309. E= 0.10493782E+02 F= 0.94352347E+00 E0= 0.94352347E+00  EK= 0.95503E+01 SP= 0.00E+00 SK= 0.00E+00
       N       E                     dE             d eps       ncg     rms          rms(c)
DAV:   1     0.109131547246E+01    0.14779E+00   -0.27689E+01   320   0.129E+01    0.853E-01
RMM:   2     0.950372692900E+00   -0.14094E+00   -0.16168E+00   308   0.274E+00    0.279E-01
RMM:   3     0.951235941629E+00    0.86325E-03   -0.51006E-02   313   0.499E-01    0.324E-01
RMM:   4     0.952836975943E+00    0.16010E-02   -0.22540E-03   306   0.117E-01    0.276E-01
RMM:   5     0.955254848643E+00    0.24179E-02   -0.76160E-03   306   0.144E-01    0.792E-02
RMM:   6     0.955234637779E+00   -0.20211E-04   -0.23881E-03   286   0.862E-02    0.379E-02
RMM:   7     0.955182066336E+00   -0.52571E-04   -0.13002E-03   282   0.604E-02    0.565E-02
RMM:   8     0.955297837590E+00    0.11577E-03   -0.83460E-05   179   0.193E-02    0.264E-02
RMM:   9     0.955318438730E+00    0.20601E-04   -0.18643E-04   187   0.256E-02
  628 T=  2307. E= 0.10497318E+02 F= 0.95531844E+00 E0= 0.95531844E+00  EK= 0.95420E+01 SP= 0.00E+00 SK= 0.00E+00
       N       E                     dE             d eps       ncg     rms          rms(c)
DAV:   1     0.112773294716E+01    0.17244E+00   -0.32568E+01   308   0.136E+01    0.939E-01
RMM:   2     0.964849407450E+00   -0.16288E+00   -0.18687E+00   308   0.295E+00    0.290E-01
RMM:   3     0.965355328986E+00    0.50592E-03   -0.59109E-02   311   0.535E-01    0.345E-01
RMM:   4     0.966311656393E+00    0.95633E-03   -0.31155E-03   323   0.132E-01    0.332E-01
RMM:   5     0.968127906195E+00    0.18162E-02   -0.10799E-03   274   0.569E-02    0.255E-01
RMM:   6     0.969918812178E+00    0.17909E-02   -0.11597E-02   307   0.175E-01    0.426E-02
RMM:   7     0.969913602072E+00   -0.52101E-05   -0.24288E-04   196   0.392E-02
  629 T=  2204. E= 0.10088357E+02 F= 0.96991360E+00 E0= 0.96991360E+00  EK= 0.91184E+01 SP= 0.00E+00 SK= 0.00E+00
       N       E                     dE             d eps       ncg     rms          rms(c)
DAV:   1     0.108874976510E+01    0.11883E+00   -0.63014E+00   308   0.854E+00    0.523E-01
RMM:   2     0.100719703204E+01   -0.81553E-01   -0.88223E-01   308   0.206E+00    0.252E-01
RMM:   3     0.100926511290E+01    0.20681E-02   -0.20120E-02   310   0.328E-01    0.239E-01
RMM:   4     0.101048085074E+01    0.12157E-02   -0.15754E-03   298   0.848E-02    0.151E-01
RMM:   5     0.101093751716E+01    0.45667E-03   -0.28824E-03   295   0.898E-02    0.393E-02
RMM:   6     0.101094545796E+01    0.79408E-05   -0.80869E-05   180   0.248E-02
  630 T=  2340. E= 0.10690195E+02 F= 0.10109455E+01 E0= 0.10109455E+01  EK= 0.96792E+01 SP= 0.00E+00 SK= 0.00E+00
       N       E                     dE             d eps       ncg     rms          rms(c)
DAV:   1     0.114494207035E+01    0.13400E+00   -0.13392E+01   312   0.102E+01    0.723E-01
RMM:   2     0.103325919944E+01   -0.11168E+00   -0.12425E+00   308   0.241E+00    0.234E-01
RMM:   3     0.103545354526E+01    0.21943E-02   -0.32194E-02   309   0.406E-01    0.249E-01
RMM:   4     0.103621312044E+01    0.75958E-03   -0.17776E-03   308   0.100E-01    0.220E-01
RMM:   5     0.103752885566E+01    0.13157E-02   -0.28972E-03   295   0.873E-02    0.945E-02
RMM:   6     0.103762929800E+01    0.10044E-03   -0.21617E-03   283   0.781E-02    0.308E-02
RMM:   7     0.103759941944E+01   -0.29879E-04   -0.56290E-04   228   0.405E-02
  631 T=  2364. E= 0.10817372E+02 F= 0.10375994E+01 E0= 0.10375994E+01  EK= 0.97798E+01 SP= 0.00E+00 SK= 0.00E+00
       N       E                     dE             d eps       ncg     rms          rms(c)
DAV:   1     0.119569005648E+01    0.15806E+00   -0.12706E+01   308   0.959E+00    0.670E-01
RMM:   2     0.108998998828E+01   -0.10570E+00   -0.11795E+00   308   0.231E+00    0.245E-01
RMM:   3     0.109214722321E+01    0.21572E-02   -0.31269E-02   311   0.388E-01    0.259E-01
RMM:   4     0.109287775352E+01    0.73053E-03   -0.16712E-03   306   0.964E-02    0.228E-01
RMM:   5     0.109411614631E+01    0.12384E-02   -0.21842E-03   290   0.738E-02    0.119E-01
RMM:   6     0.109433788652E+01    0.22174E-03   -0.30784E-03   290   0.900E-02    0.337E-02
RMM:   7     0.109430471481E+01   -0.33172E-04   -0.60435E-04   240   0.427E-02
  632 T=  2196. E= 0.10178409E+02 F= 0.10943047E+01 E0= 0.10943047E+01  EK= 0.90841E+01 SP= 0.00E+00 SK= 0.00E+00
       N       E                     dE             d eps       ncg     rms          rms(c)
DAV:   1     0.131576078058E+01    0.22142E+00   -0.24255E+01   312   0.123E+01    0.809E-01
RMM:   2     0.118615800054E+01   -0.12960E+00   -0.14793E+00   308   0.266E+00    0.262E-01
RMM:   3     0.118686647966E+01    0.70848E-03   -0.46822E-02   318   0.479E-01    0.308E-01
RMM:   4     0.118803805618E+01    0.11716E-02   -0.21311E-03   311   0.112E-01    0.273E-01
RMM:   5     0.118979169242E+01    0.17536E-02   -0.24567E-03   298   0.826E-02    0.160E-01
RMM:   6     0.119038202910E+01    0.59034E-03   -0.44327E-03   306   0.113E-01    0.322E-02
RMM:   7     0.119035995828E+01   -0.22071E-04   -0.11962E-04   180   0.285E-02
  633 T=  2016. E= 0.95300675E+01 F= 0.11903600E+01 E0= 0.11903600E+01  EK= 0.83397E+01 SP= 0.00E+00 SK= 0.00E+00
       N       E                     dE             d eps       ncg     rms          rms(c)
DAV:   1     0.143820723259E+01    0.24783E+00   -0.20819E+01   308   0.116E+01    0.762E-01
RMM:   2     0.132047161055E+01   -0.11774E+00   -0.13392E+00   308   0.252E+00    0.259E-01
RMM:   3     0.132144405036E+01    0.97244E-03   -0.40943E-02   316   0.453E-01    0.295E-01
RMM:   4     0.132268186142E+01    0.12378E-02   -0.18893E-03   308   0.107E-01    0.256E-01
RMM:   5     0.132455634623E+01    0.18745E-02   -0.39559E-03   306   0.105E-01    0.111E-01
RMM:   6     0.132475350165E+01    0.19716E-03   -0.29179E-03   294   0.931E-02    0.278E-02
RMM:   7     0.132472954214E+01   -0.23960E-04   -0.36330E-04   220   0.362E-02
  634 T=  2319. E= 0.10917452E+02 F= 0.13247295E+01 E0= 0.13247295E+01  EK= 0.95927E+01 SP= 0.00E+00 SK= 0.00E+00
       N       E                     dE             d eps       ncg     rms          rms(c)
DAV:   1     0.160949002170E+01    0.28474E+00   -0.25570E+01   312   0.121E+01    0.839E-01
RMM:   2     0.146430897672E+01   -0.14518E+00   -0.16358E+00   308   0.277E+00    0.285E-01
RMM:   3     0.146562600065E+01    0.13170E-02   -0.49339E-02   313   0.480E-01    0.324E-01
RMM:   4     0.146678905675E+01    0.11631E-02   -0.23732E-03   307   0.115E-01    0.290E-01
RMM:   5     0.146862519253E+01    0.18361E-02   -0.22990E-03   290   0.776E-02    0.178E-01
RMM:   6     0.146932563314E+01    0.70044E-03   -0.56680E-03   303   0.122E-01    0.356E-02
RMM:   7     0.146932007550E+01   -0.55576E-05   -0.17366E-04   190   0.308E-02
  635 T=  2156. E= 0.10387326E+02 F= 0.14693201E+01 E0= 0.14693201E+01  EK= 0.89180E+01 SP= 0.00E+00 SK= 0.00E+00
       N       E                     dE             d eps       ncg     rms          rms(c)
DAV:   1     0.170642643609E+01    0.23710E+00   -0.19406E+01   308   0.109E+01    0.754E-01
RMM:   2     0.159149817729E+01   -0.11493E+00   -0.12997E+00   308   0.243E+00    0.260E-01
RMM:   3     0.159238756560E+01    0.88939E-03   -0.39180E-02   312   0.440E-01    0.288E-01
RMM:   4     0.159367059284E+01    0.12830E-02   -0.18630E-03   301   0.104E-01    0.239E-01
RMM:   5     0.159521388899E+01    0.15433E-02   -0.38125E-03   300   0.991E-02    0.966E-02
RMM:   6     0.159534015366E+01    0.12626E-03   -0.11747E-03   271   0.599E-02    0.357E-02
RMM:   7     0.159524858489E+01   -0.91569E-04   -0.27766E-04   200   0.297E-02
  636 T=  1920. E= 0.95350789E+01 F= 0.15952486E+01 E0= 0.15952486E+01  EK= 0.79398E+01 SP= 0.00E+00 SK= 0.00E+00
       N       E                     dE             d eps       ncg     rms          rms(c)
DAV:   1     0.178452743499E+01    0.18919E+00   -0.10354E+01   308   0.908E+00    0.614E-01
RMM:   2     0.170400790620E+01   -0.80520E-01   -0.90597E-01   308   0.204E+00    0.210E-01
RMM:   3     0.170522352359E+01    0.12156E-02   -0.25063E-02   310   0.362E-01    0.227E-01
RMM:   4     0.170582364522E+01    0.60012E-03   -0.13584E-03   294   0.885E-02    0.204E-01
RMM:   5     0.170693428398E+01    0.11106E-02   -0.20218E-03   292   0.751E-02    0.100E-01
RMM:   6     0.170712318187E+01    0.18890E-03   -0.18059E-03   280   0.726E-02    0.258E-02
RMM:   7     0.170704963921E+01   -0.73543E-04   -0.30466E-04   204   0.323E-02
  637 T=  1981. E= 0.99010375E+01 F= 0.17070496E+01 E0= 0.17070496E+01  EK= 0.81940E+01 SP= 0.00E+00 SK= 0.00E+00
       N       E                     dE             d eps       ncg     rms          rms(c)
DAV:   1     0.190656458134E+01    0.19944E+00   -0.96591E+00   308   0.928E+00    0.621E-01
RMM:   2     0.181538709599E+01   -0.91177E-01   -0.10141E+00   308   0.220E+00    0.230E-01
RMM:   3     0.181769353283E+01    0.23064E-02   -0.25289E-02   311   0.370E-01    0.234E-01
RMM:   4     0.181843050022E+01    0.73697E-03   -0.13978E-03   301   0.898E-02    0.200E-01
RMM:   5     0.181947192368E+01    0.10414E-02   -0.23569E-03   291   0.803E-02    0.889E-02
RMM:   6     0.181955494979E+01    0.83026E-04   -0.17562E-03   282   0.722E-02    0.281E-02
RMM:   7     0.181953014283E+01   -0.24807E-04   -0.42847E-04   223   0.361E-02
  638 T=  1913. E= 0.97309077E+01 F= 0.18195301E+01 E0= 0.18195301E+01  EK= 0.79114E+01 SP= 0.00E+00 SK= 0.00E+00
       N       E                     dE             d eps       ncg     rms          rms(c)
DAV:   1     0.195286979212E+01    0.13331E+00   -0.14275E+01   308   0.100E+01    0.664E-01
RMM:   2     0.185905392958E+01   -0.93816E-01   -0.10597E+00   308   0.224E+00    0.226E-01
RMM:   3     0.186036497628E+01    0.13110E-02   -0.30672E-02   311   0.396E-01    0.247E-01
RMM:   4     0.186119040401E+01    0.82543E-03   -0.15695E-03   301   0.950E-02    0.214E-01
RMM:   5     0.186250478577E+01    0.13144E-02   -0.33278E-03   299   0.958E-02    0.823E-02
RMM:   6     0.186255987505E+01    0.55089E-04   -0.17356E-03   280   0.725E-02    0.292E-02
RMM:   7     0.186251891015E+01   -0.40965E-04   -0.62966E-04   252   0.432E-02
  639 T=  2225. E= 0.11064959E+02 F= 0.18625189E+01 E0= 0.18625189E+01  EK= 0.92024E+01 SP= 0.00E+00 SK= 0.00E+00
       N       E                     dE             d eps       ncg     rms          rms(c)
DAV:   1     0.194782064071E+01    0.85261E-01   -0.24804E+01   308   0.119E+01    0.802E-01
RMM:   2     0.181464846953E+01   -0.13317E+00   -0.15047E+00   308   0.261E+00    0.267E-01
RMM:   3     0.181573845970E+01    0.10900E-02   -0.46386E-02   312   0.463E-01    0.305E-01
RMM:   4     0.181664973382E+01    0.91127E-03   -0.24103E-03   305   0.113E-01    0.283E-01
RMM:   5     0.181850672367E+01    0.18570E-02   -0.23838E-03   288   0.772E-02    0.170E-01
RMM:   6     0.181912629229E+01    0.61957E-03   -0.63984E-03   305   0.127E-01    0.352E-02
RMM:   7     0.181916976675E+01    0.43474E-04   -0.15702E-04   185   0.302E-02
  640 T=  2319. E= 0.11411072E+02 F= 0.18191698E+01 E0= 0.18191698E+01  EK= 0.95919E+01 SP= 0.00E+00 SK= 0.00E+00
       N       E                     dE             d eps       ncg     rms          rms(c)
DAV:   1     0.195092433759E+01    0.13180E+00   -0.27870E+01   312   0.129E+01    0.841E-01
RMM:   2     0.180745774452E+01   -0.14347E+00   -0.16252E+00   308   0.277E+00    0.292E-01
RMM:   3     0.180836063907E+01    0.90289E-03   -0.50536E-02   313   0.500E-01    0.329E-01
RMM:   4     0.181026496391E+01    0.19043E-02   -0.22944E-03   307   0.117E-01    0.265E-01
RMM:   5     0.181238023069E+01    0.21153E-02   -0.77798E-03   308   0.145E-01    0.685E-02
RMM:   6     0.181237690733E+01   -0.33234E-05   -0.10754E-03   274   0.610E-02    0.296E-02
RMM:   7     0.181226135428E+01   -0.11555E-03   -0.89797E-04   260   0.490E-02    0.605E-02
RMM:   8     0.181240473209E+01    0.14338E-03   -0.25083E-04   200   0.283E-02    0.158E-02
RMM:   9     0.181240580965E+01    0.10776E-05   -0.12608E-04   180   0.233E-02
  641 T=  2348. E= 0.11523800E+02 F= 0.18124058E+01 E0= 0.18124058E+01  EK= 0.97114E+01 SP= 0.00E+00 SK= 0.00E+00
       N       E                     dE             d eps       ncg     rms          rms(c)
DAV:   1     0.186897610496E+01    0.56571E-01   -0.19201E+01   308   0.109E+01    0.773E-01
RMM:   2     0.175351950353E+01   -0.11546E+00   -0.13130E+00   308   0.244E+00    0.235E-01
RMM:   3     0.175431303475E+01    0.79353E-03   -0.39504E-02   311   0.431E-01    0.276E-01
RMM:   4     0.175486072193E+01    0.54769E-03   -0.21141E-03   310   0.108E-01    0.266E-01
RMM:   5     0.175578269526E+01    0.92197E-03   -0.48813E-04   214   0.408E-02    0.216E-01
RMM:   6     0.175697409774E+01    0.11914E-02   -0.97624E-03   308   0.160E-01    0.350E-02
RMM:   7     0.175698728897E+01    0.13191E-04   -0.15232E-04   186   0.315E-02
  642 T=  2039. E= 0.10191500E+02 F= 0.17569873E+01 E0= 0.17569873E+01  EK= 0.84345E+01 SP= 0.00E+00 SK= 0.00E+00
       N       E                     dE             d eps       ncg     rms          rms(c)
DAV:   1     0.177106083260E+01    0.14087E-01   -0.15214E+01   308   0.104E+01    0.648E-01
RMM:   2     0.167399346246E+01   -0.97067E-01   -0.10878E+00   308   0.225E+00    0.250E-01
RMM:   3     0.167518702367E+01    0.11936E-02   -0.32062E-02   316   0.407E-01    0.267E-01
RMM:   4     0.167626880403E+01    0.10818E-02   -0.15371E-03   303   0.957E-02    0.222E-01
RMM:   5     0.167754068782E+01    0.12719E-02   -0.30362E-03   302   0.927E-02    0.962E-02
RMM:   6     0.167764091603E+01    0.10023E-03   -0.18656E-03   284   0.760E-02    0.298E-02
RMM:   7     0.167761160459E+01   -0.29311E-04   -0.38259E-04   212   0.372E-02
  643 T=  2118. E= 0.10437861E+02 F= 0.16776116E+01 E0= 0.16776116E+01  EK= 0.87602E+01 SP= 0.00E+00 SK= 0.00E+00
       N       E                     dE             d eps       ncg     rms          rms(c)
DAV:   1     0.163944319125E+01   -0.38198E-01   -0.73038E+00   308   0.882E+00    0.628E-01
RMM:   2     0.154875007937E+01   -0.90693E-01   -0.10004E+00   308   0.219E+00    0.218E-01
RMM:   3     0.155124966914E+01    0.24996E-02   -0.23035E-02   310   0.360E-01    0.220E-01
RMM:   4     0.155162160287E+01    0.37193E-03   -0.14598E-03   308   0.906E-02    0.209E-01
RMM:   5     0.155232519885E+01    0.70360E-03   -0.53487E-04   228   0.416E-02    0.156E-01
RMM:   6     0.155287238420E+01    0.54719E-03   -0.49782E-03   307   0.117E-01    0.345E-02
RMM:   7     0.155290124900E+01    0.28865E-04   -0.53896E-05   180   0.214E-02
  644 T=  1970. E= 0.97000302E+01 F= 0.15529012E+01 E0= 0.15529012E+01  EK= 0.81471E+01 SP= 0.00E+00 SK= 0.00E+00
       N       E                     dE             d eps       ncg     rms          rms(c)
DAV:   1     0.150800681893E+01   -0.44866E-01   -0.10742E+01   308   0.884E+00    0.582E-01
RMM:   2     0.142869776312E+01   -0.79309E-01   -0.89929E-01   308   0.200E+00    0.242E-01
RMM:   3     0.142982073545E+01    0.11230E-02   -0.25429E-02   309   0.358E-01    0.247E-01
RMM:   4     0.143108453678E+01    0.12638E-02   -0.13095E-03   304   0.855E-02    0.180E-01
RMM:   5     0.143193638878E+01    0.85185E-03   -0.42197E-03   306   0.107E-01    0.418E-02
RMM:   6     0.143193081262E+01   -0.55762E-05   -0.23319E-04   191   0.344E-02
  645 T=  2073. E= 0.10005649E+02 F= 0.14319308E+01 E0= 0.14319308E+01  EK= 0.85737E+01 SP= 0.00E+00 SK= 0.00E+00
       N       E                     dE             d eps       ncg     rms          rms(c)
DAV:   1     0.145648911662E+01    0.24553E-01   -0.22677E+01   308   0.124E+01    0.823E-01
RMM:   2     0.132050608731E+01   -0.13598E+00   -0.15364E+00   308   0.275E+00    0.279E-01
RMM:   3     0.132204758464E+01    0.15415E-02   -0.45043E-02   312   0.491E-01    0.310E-01
RMM:   4     0.132326311694E+01    0.12155E-02   -0.22472E-03   312   0.118E-01    0.276E-01
RMM:   5     0.132528639957E+01    0.20233E-02   -0.36310E-03   304   0.101E-01    0.136E-01
RMM:   6     0.132557564041E+01    0.28924E-03   -0.45911E-03   303   0.116E-01    0.360E-02
RMM:   7     0.132560542865E+01    0.29788E-04   -0.40394E-04   234   0.386E-02
  646 T=  2115. E= 0.10074923E+02 F= 0.13256054E+01 E0= 0.13256054E+01  EK= 0.87493E+01 SP= 0.00E+00 SK= 0.00E+00
       N       E                     dE             d eps       ncg     rms          rms(c)
DAV:   1     0.128389932713E+01   -0.41676E-01   -0.16775E+01   312   0.107E+01    0.724E-01
RMM:   2     0.117036625394E+01   -0.11353E+00   -0.12737E+00   308   0.245E+00    0.263E-01
RMM:   3     0.117188605289E+01    0.15198E-02   -0.37168E-02   316   0.431E-01    0.290E-01
RMM:   4     0.117312870593E+01    0.12427E-02   -0.17655E-03   306   0.101E-01    0.241E-01
RMM:   5     0.117465879356E+01    0.15301E-02   -0.37541E-03   302   0.980E-02    0.103E-01
RMM:   6     0.117479634992E+01    0.13756E-03   -0.20520E-03   283   0.766E-02    0.317E-02
RMM:   7     0.117473991695E+01   -0.56433E-04   -0.45794E-04   214   0.378E-02
  647 T=  2082. E= 0.97847893E+01 F= 0.11747399E+01 E0= 0.11747399E+01  EK= 0.86100E+01 SP= 0.00E+00 SK= 0.00E+00
       N       E                     dE             d eps       ncg     rms          rms(c)
DAV:   1     0.116233310974E+01   -0.12463E-01   -0.14983E+01   308   0.104E+01    0.715E-01
RMM:   2     0.105718264673E+01   -0.10515E+00   -0.11890E+00   308   0.236E+00    0.231E-01
RMM:   3     0.105891288181E+01    0.17302E-02   -0.33206E-02   309   0.416E-01    0.253E-01
RMM:   4     0.105956079287E+01    0.64791E-03   -0.19195E-03   311   0.104E-01    0.236E-01
RMM:   5     0.106087638661E+01    0.13156E-02   -0.16141E-03   288   0.674E-02    0.143E-01
RMM:   6     0.106133940939E+01    0.46302E-03   -0.40044E-03   299   0.105E-01    0.308E-02
RMM:   7     0.106133127369E+01   -0.81357E-05   -0.15214E-04   183   0.280E-02
  648 T=  2520. E= 0.11484308E+02 F= 0.10613313E+01 E0= 0.10613313E+01  EK= 0.10423E+02 SP= 0.00E+00 SK= 0.00E+00
       N       E                     dE             d eps       ncg     rms          rms(c)
DAV:   1     0.108182731711E+01    0.20488E-01   -0.28516E+01   312   0.127E+01    0.857E-01
RMM:   2     0.926949696081E+00   -0.15488E+00   -0.17572E+00   308   0.283E+00    0.301E-01
RMM:   3     0.928278008167E+00    0.13283E-02   -0.53196E-02   311   0.493E-01    0.340E-01
RMM:   4     0.930250490059E+00    0.19725E-02   -0.24418E-03   304   0.116E-01    0.272E-01
RMM:   5     0.932433323229E+00    0.21828E-02   -0.71602E-03   302   0.132E-01    0.850E-02
RMM:   6     0.932433837432E+00    0.51420E-06   -0.21823E-03   280   0.787E-02    0.387E-02
RMM:   7     0.932386875873E+00   -0.46962E-04   -0.10809E-03   259   0.522E-02    0.528E-02
RMM:   8     0.932477073129E+00    0.90197E-04   -0.54966E-05   178   0.165E-02
  649 T=  2525. E= 0.11376755E+02 F= 0.93247707E+00 E0= 0.93247707E+00  EK= 0.10444E+02 SP= 0.00E+00 SK= 0.00E+00
       N       E                     dE             d eps       ncg     rms          rms(c)
DAV:   1     0.912280658784E+00   -0.20106E-01   -0.12812E+01   308   0.106E+01    0.747E-01
RMM:   2     0.795577298675E+00   -0.11670E+00   -0.13090E+00   308   0.248E+00    0.244E-01
RMM:   3     0.798061689264E+00    0.24844E-02   -0.33354E-02   308   0.428E-01    0.254E-01
RMM:   4     0.798793448830E+00    0.73176E-03   -0.19513E-03   309   0.105E-01    0.231E-01
RMM:   5     0.800251097669E+00    0.14576E-02   -0.28974E-03   297   0.897E-02    0.107E-01
RMM:   6     0.800405657796E+00    0.15456E-03   -0.25927E-03   288   0.870E-02    0.327E-02
RMM:   7     0.800368867986E+00   -0.36790E-04   -0.52409E-04   242   0.408E-02
  650 T=  2562. E= 0.11398781E+02 F= 0.80036887E+00 E0= 0.80036887E+00  EK= 0.10598E+02 SP= 0.00E+00 SK= 0.00E+00
