Ar cube particle                        
           1
    15.000000    0.000000    0.000000
     0.000000   15.000000    0.000000
     0.000000    0.000000   15.000000
   Ar
  32
Direct configuration=     1
   0.31102942  0.31199495  0.31193734
   0.43908907  0.43615870  0.31089974
   0.43548627  0.31367922  0.43607382
   0.31130428  0.43845723  0.43892219
   0.56406539  0.31281269  0.31118808
   0.68671266  0.43818010  0.31328613
   0.68586941  0.31161896  0.43524053
   0.55896711  0.43680070  0.43608144
   0.31204825  0.56248581  0.31316579
   0.43645262  0.68822696  0.31241123
   0.43723200  0.56090154  0.43652570
   0.31341492  0.68707679  0.43611448
   0.56395400  0.56205370  0.31178972
   0.68667702  0.68622538  0.31086865
   0.68587501  0.56139319  0.43499558
   0.56388178  0.68704115  0.43805030
   0.31372213  0.31107965  0.56254844
   0.43785153  0.43455086  0.56222640
   0.43685628  0.31152976  0.68681402
   0.31356876  0.43800317  0.68823381
   0.56263156  0.31197157  0.56169658
   0.68656678  0.43775060  0.56184488
   0.68810981  0.31045521  0.68531439
   0.56258088  0.43936116  0.68649804
   0.31238726  0.56135825  0.56467040
   0.43533157  0.68860678  0.56246135
   0.43588234  0.56001534  0.68781648
   0.31236438  0.68877453  0.68932590
   0.56172498  0.56150124  0.56289695
   0.68703366  0.68685574  0.56199398
   0.68874363  0.56318048  0.68750732
   0.55958522  0.68689858  0.68760035
Direct configuration=     2
   0.30946291  0.31208805  0.31243298
   0.44103639  0.43496619  0.30884066
   0.43387657  0.31436557  0.43478676
   0.30993018  0.43951075  0.44047231
   0.56620968  0.31270085  0.30948871
   0.68707072  0.43898119  0.31368879
   0.68536475  0.31033457  0.43315879
   0.55609860  0.43622305  0.43484275
   0.31256717  0.56121356  0.31463948
   0.43585065  0.68978319  0.31195514
   0.43672466  0.56297246  0.43498472
   0.31419423  0.68748526  0.43490614
   0.56594462  0.56192684  0.31062344
   0.68689478  0.68570258  0.30895306
   0.68784474  0.56014096  0.43441189
   0.56582260  0.68748780  0.43875901
   0.31100290  0.31136112  0.56347658
   0.43859744  0.43176415  0.56231086
   0.43689158  0.31108959  0.68676030
   0.31449525  0.43859957  0.68986076
   0.56334267  0.31096595  0.56123557
   0.68682828  0.43812746  0.56150845
   0.68750687  0.30892789  0.68509827
   0.56327112  0.44129001  0.68645120
   0.31208694  0.56054681  0.56716755
   0.43358426  0.69060497  0.56276281
   0.43468245  0.55788739  0.68907016
   0.31222472  0.69077570  0.69192393
   0.56152712  0.56083772  0.56361795
   0.68769172  0.68704410  0.56183454
   0.69109901  0.56417532  0.68840056
   0.55727443  0.68711939  0.68857590
Direct configuration=     3
   0.30939637  0.31260808  0.31254266
   0.44309486  0.43379881  0.30632278
   0.43248735  0.31464615  0.43344057
   0.30840467  0.44055569  0.44192909
   0.56852517  0.31226275  0.30739563
   0.68798523  0.43976843  0.31370784
   0.68538501  0.30874626  0.43106990
   0.55358870  0.43567835  0.43359802
   0.31297522  0.55990741  0.31571588
   0.43550981  0.69164076  0.31112265
   0.43646537  0.56504439  0.43344764
   0.31482503  0.68821811  0.43368178
   0.56805647  0.56183835  0.30901190
   0.68754746  0.68541566  0.30675975
   0.69038906  0.55891419  0.43383726
   0.56791877  0.68830459  0.43941504
   0.30815838  0.31133372  0.56435651
   0.43953424  0.42908064  0.56234353
   0.43688169  0.30907956  0.68752924
   0.31528117  0.43913213  0.69176898
   0.56425475  0.30958208  0.56069672
   0.68426392  0.43740807  0.56159915
   0.68646383  0.30942580  0.68493109
   0.56419187  0.44313840  0.68675108
   0.31162578  0.55979498  0.56955851
   0.43207211  0.69294345  0.56300404
   0.43372755  0.55586918  0.69063251
   0.31210079  0.69297533  0.69467085
   0.56149882  0.56023349  0.56424042
   0.68849508  0.68899720  0.56219769
   0.69069126  0.56303839  0.68993792
   0.55520423  0.68761959  0.68978338
Direct configuration=     4
   0.30927136  0.31274896  0.31225775
   0.44313091  0.43575770  0.30690564
   0.43129610  0.31429692  0.43192777
   0.30673658  0.44132704  0.44317645
   0.57095828  0.31128475  0.30481287
   0.68944169  0.44029953  0.31322038
   0.68589506  0.30668196  0.42888667
   0.55145089  0.43497281  0.43223147
   0.31324733  0.55836439  0.31625209
   0.43540700  0.69356090  0.30979140
   0.43644442  0.56687242  0.43182502
   0.31525960  0.68905670  0.43234499
   0.56864971  0.56147285  0.30853922
   0.68861304  0.68514589  0.30420624
   0.69007880  0.55807069  0.43398009
   0.57011797  0.68925022  0.43986921
   0.30519341  0.31080257  0.56508474
   0.44058901  0.42631196  0.56220493
   0.43709324  0.30655338  0.68843345
   0.31590286  0.43934006  0.69381714
   0.56532740  0.30760004  0.55995274
   0.68225340  0.43645218  0.56144524
   0.68580377  0.30950640  0.68480213
   0.56529401  0.44461566  0.68729604
   0.31099839  0.55892783  0.57170282
   0.43078525  0.69534494  0.56306194
   0.43301483  0.55381261  0.69236823
   0.31199087  0.69513766  0.69742474
   0.56287050  0.56250745  0.56408175
   0.68976660  0.69100128  0.56243342
   0.69074447  0.56175396  0.69156989
   0.55337324  0.68816832  0.69109352
Direct configuration=     5
   0.30883181  0.31275163  0.31149578
   0.44295305  0.43774248  0.30681831
   0.43005117  0.31352392  0.43018814
   0.30468885  0.44206558  0.44414663
   0.57323085  0.31002864  0.30167683
   0.69116401  0.44077089  0.31217824
   0.68631020  0.30540267  0.43011506
   0.54948094  0.43430429  0.43069812
   0.31313027  0.55684618  0.31615721
   0.43531698  0.69573800  0.30789975
   0.43587058  0.56602008  0.43225034
   0.31523718  0.69022511  0.43081611
   0.56903152  0.56118169  0.30747578
   0.68984647  0.68511058  0.30124256
   0.69005273  0.55732647  0.43396637
   0.57213671  0.69053913  0.43999657
   0.30572092  0.31167533  0.56645044
   0.44149269  0.42372918  0.56185261
   0.43726431  0.30377303  0.68937630
   0.31609562  0.43940040  0.69591625
   0.56629741  0.30526780  0.55892479
   0.68055151  0.43549562  0.56095862
   0.68528266  0.30939140  0.68465412
   0.56628632  0.44590687  0.68800419
   0.30998567  0.55820885  0.57350300
   0.42946774  0.69800142  0.56286491
   0.43387836  0.55396686  0.69325885
   0.31163841  0.69743443  0.70008166
   0.56187955  0.56238963  0.56591642
   0.69125309  0.69325070  0.56249600
   0.69102287  0.56055602  0.69320158
   0.55154956  0.68897514  0.69241845
Direct configuration=     6
   0.30818298  0.31262100  0.31037889
   0.44266818  0.43969451  0.30615150
   0.43051581  0.31254098  0.43037595
   0.30238895  0.44274817  0.44493819
   0.57543827  0.30849516  0.29812636
   0.69323903  0.44115660  0.31069997
   0.68706526  0.30391622  0.43125459
   0.54784226  0.43365319  0.42914025
   0.31272448  0.55537477  0.31555335
   0.43534777  0.69811854  0.30560005
   0.43539952  0.56518543  0.43267930
   0.31487826  0.69168445  0.42921018
   0.56931697  0.56096660  0.30596253
   0.68916738  0.68510166  0.30119137
   0.69039432  0.55669290  0.43392781
   0.57408613  0.69213011  0.43990777
   0.30602567  0.31227363  0.56769462
   0.44234417  0.42131144  0.56142069
   0.43752246  0.30076385  0.69046128
   0.31598901  0.43929633  0.69816044
   0.56722857  0.30258294  0.55773518
   0.67926890  0.43452683  0.56024595
   0.68501343  0.30905965  0.68460847
   0.56663535  0.44686950  0.68815583
   0.30872797  0.55763041  0.57505922
   0.42821686  0.70088376  0.56251943
   0.43484383  0.55432118  0.69428930
   0.31117011  0.69983674  0.70276069
   0.56084076  0.56237354  0.56751356
   0.69304317  0.69569823  0.56251968
   0.69163605  0.55945323  0.69492091
   0.54983810  0.69003843  0.69383669
Direct configuration=     7
   0.30718043  0.31247787  0.30895105
   0.44305293  0.44165462  0.30688136
   0.43094482  0.31212080  0.43116378
   0.29968967  0.44344760  0.44556860
   0.57742147  0.30683195  0.29423289
   0.69547827  0.44155418  0.30882454
   0.68799305  0.30236027  0.43229964
   0.54639828  0.43312423  0.42758129
   0.31186142  0.55410749  0.31447648
   0.43533153  0.70078722  0.30296034
   0.43486768  0.56453048  0.43314580
   0.31475813  0.69040320  0.42857282
   0.56935510  0.56094594  0.30405828
   0.68859291  0.68540900  0.30086603
   0.69091765  0.55627947  0.43389522
   0.57574220  0.69411148  0.43962471
   0.30594503  0.31270482  0.56883463
   0.44297683  0.41919202  0.56099329
   0.43770274  0.29764469  0.69171010
   0.31544228  0.43915048  0.70058530
   0.56794160  0.29966347  0.55644296
   0.67822444  0.43366618  0.55933313
   0.68482032  0.30862827  0.68469580
   0.56677756  0.44765142  0.68862518
   0.30707823  0.55730466  0.57642944
   0.42686280  0.70408950  0.56206910
   0.43570091  0.55497500  0.69547302
   0.31042015  0.70245935  0.70549560
   0.55960496  0.56260246  0.56885732
   0.69494237  0.69841318  0.56254411
   0.69241883  0.55859063  0.69671717
   0.55055540  0.69011811  0.69509101
Direct configuration=     8
   0.30586880  0.31219655  0.30733973
   0.44328949  0.44361407  0.30679379
   0.43121781  0.31121382  0.43188873
   0.29661978  0.44401427  0.44614923
   0.57918932  0.30494005  0.29010438
   0.69787251  0.44181844  0.30670364
   0.68909538  0.30061770  0.43329870
   0.54523411  0.43257090  0.42613137
   0.31355835  0.55360444  0.31484788
   0.43528223  0.70358901  0.30010860
   0.43429719  0.56395072  0.43374856
   0.31418219  0.68935012  0.42797472
   0.56917607  0.56097874  0.30189623
   0.68785251  0.68691328  0.29998269
   0.69161474  0.55595052  0.43396398
   0.57713384  0.69629455  0.43929692
   0.30548297  0.31283522  0.56997887
   0.44339220  0.41726459  0.56069227
   0.43782195  0.29428947  0.69319891
   0.31450027  0.43883303  0.70330333
   0.56844668  0.29637156  0.55520163
   0.67741838  0.43278900  0.55833624
   0.68470973  0.30798064  0.68501465
   0.56673102  0.44808827  0.68951981
   0.30506193  0.55711100  0.57774740
   0.42543743  0.70748079  0.56162334
   0.43642941  0.55579216  0.69690059
   0.30943363  0.70516655  0.70836836
   0.55907544  0.56187968  0.56896101
   0.69693622  0.70124098  0.56267694
   0.69338670  0.55783425  0.69870697
   0.55125171  0.69042565  0.69654051
Direct configuration=     9
   0.30442386  0.31174429  0.30548266
   0.44335301  0.44531710  0.30612962
   0.43106851  0.30982480  0.43164890
   0.29333017  0.44438397  0.44659651
   0.58090713  0.30281510  0.28571255
   0.69776637  0.44331582  0.30827076
   0.69051423  0.29863712  0.43414186
   0.54454379  0.43194396  0.42473115
   0.31350575  0.55396447  0.31494459
   0.43533217  0.70647480  0.29698892
   0.43369428  0.56240140  0.43482909
   0.31328456  0.68848156  0.42732482
   0.56894668  0.56103191  0.29941065
   0.68736238  0.68854885  0.29885194
   0.69258894  0.55567412  0.43404264
   0.57839275  0.69862875  0.43884435
   0.30511208  0.31249266  0.56976076
   0.44612738  0.41608235  0.55949936
   0.43801388  0.29068916  0.69482997
   0.31335016  0.43830397  0.70622583
   0.56887638  0.29267555  0.55394443
   0.67813007  0.43228112  0.55822079
   0.68481937  0.30709729  0.68547984
   0.56664171  0.44812801  0.69076484
   0.30287313  0.55701231  0.57894651
   0.42409519  0.71097031  0.56112076
   0.43713057  0.55671325  0.69847845
   0.30838155  0.70790454  0.71127035
   0.55855264  0.56127031  0.56880465
   0.69915551  0.70413246  0.56283718
   0.69466313  0.55714385  0.70078521
   0.55206270  0.69091483  0.69808005
Direct configuration=    10
   0.30299345  0.31140056  0.30336436
   0.44335023  0.44699704  0.30483867
   0.42859523  0.30872497  0.43187036
   0.29321421  0.44317347  0.44658656
   0.58215921  0.30331426  0.28543364
   0.69807153  0.44485899  0.30947779
   0.69236139  0.29669056  0.43475871
   0.54448038  0.43149367  0.42334918
   0.31326021  0.55463476  0.31455259
   0.43558393  0.70969396  0.29357696
   0.43331857  0.56118547  0.43594123
   0.31221182  0.68806466  0.42658543
   0.56880182  0.56137953  0.29656182
   0.68724005  0.69058265  0.29742406
   0.69184781  0.55522311  0.43666336
   0.57962082  0.70134884  0.43825957
   0.30465373  0.31208886  0.56945531
   0.44699105  0.41587450  0.56093444
   0.43838611  0.28712777  0.69652530
   0.31214084  0.43784361  0.70927921
   0.56935059  0.28885880  0.55264315
   0.67764376  0.43226251  0.55782566
   0.68525858  0.30626413  0.68604862
   0.56663706  0.44803843  0.69228754
   0.30065164  0.55727845  0.58000117
   0.42294766  0.71224149  0.56041993
   0.43789316  0.55798843  0.70016072
   0.30956371  0.70786384  0.70819510
   0.55830325  0.55990229  0.56930901
   0.70171101  0.70734004  0.56298981
   0.69463449  0.55541933  0.70202650
   0.55312272  0.69184101  0.69965425
Direct configuration=    11
   0.30161671  0.31091034  0.30084920
   0.44366138  0.44907868  0.30701333
   0.42621608  0.30717151  0.43169153
   0.29305870  0.44181290  0.44626537
   0.58351305  0.30361999  0.28473425
   0.69880189  0.44618830  0.31016810
   0.69462101  0.29454484  0.43499359
   0.54330815  0.43033399  0.42302957
   0.31284996  0.55536097  0.31352637
   0.43604689  0.71296188  0.28975230
   0.43318568  0.56006051  0.43693307
   0.31101654  0.68783816  0.42560741
   0.56859231  0.56119730  0.29715181
   0.68529532  0.69185805  0.29789621
   0.69148951  0.55489157  0.43908110
   0.57918393  0.70407339  0.43971427
   0.30317202  0.31459844  0.57000954
   0.44696870  0.41500738  0.56150663
   0.43897924  0.28339421  0.69809140
   0.31125412  0.43685519  0.70895940
   0.56988901  0.28472546  0.55115234
   0.67742831  0.43161344  0.55811345
   0.68603277  0.30524746  0.68655172
   0.56845133  0.44916283  0.69065816
   0.29842537  0.55764691  0.58076424
   0.42203589  0.71361168  0.55948267
   0.43871752  0.55934081  0.70178559
   0.31085331  0.70783223  0.70494885
   0.55823095  0.55872806  0.56935345
   0.70461217  0.71059351  0.56297463
   0.69503856  0.55381241  0.70314197
   0.55445364  0.69292760  0.70109849
Direct configuration=    12
   0.30015966  0.31028843  0.29814120
   0.44371122  0.45085727  0.30858179
   0.42379779  0.30522138  0.43131987
   0.29271127  0.44035138  0.44582549
   0.58481506  0.30375476  0.28382998
   0.69981224  0.44731249  0.31054381
   0.69712900  0.29221473  0.43506314
   0.54267717  0.42907379  0.42283082
   0.31239438  0.55484423  0.31589704
   0.43656594  0.71628031  0.28577069
   0.43313009  0.55908004  0.43800731
   0.30956735  0.68780203  0.42459648
   0.56837161  0.56112156  0.29745457
   0.68359072  0.69325375  0.29813641
   0.69136155  0.55472251  0.44149034
   0.57859157  0.70693568  0.44109440
   0.30148948  0.31683079  0.57055593
   0.44683397  0.41425550  0.56220845
   0.43965010  0.27950282  0.69972319
   0.31023555  0.43571347  0.70878940
   0.57032614  0.28030236  0.54967782
   0.67652532  0.43335572  0.55654032
   0.68698625  0.30406202  0.68718505
   0.57017633  0.44987463  0.68939620
   0.29606523  0.55811388  0.58143627
   0.42124139  0.71508533  0.55851234
   0.43944882  0.56073276  0.70355637
   0.31205585  0.70783556  0.70177145
   0.55819004  0.55779707  0.56913227
   0.70772371  0.71388076  0.56298888
   0.69576026  0.55236568  0.70434240
   0.55590496  0.69417730  0.70260033
Direct configuration=    13
   0.29858529  0.30949464  0.29518787
   0.44344566  0.45226684  0.30944600
   0.42134043  0.30286710  0.43073792
   0.29215024  0.43875974  0.44523060
   0.58605092  0.30369275  0.28268125
   0.70105673  0.44819337  0.31057278
   0.69985907  0.28970091  0.43492925
   0.54257245  0.42763753  0.42275049
   0.31160042  0.55436281  0.31779624
   0.43709962  0.71960127  0.28161080
   0.43310181  0.55824479  0.43916471
   0.30785990  0.68793495  0.42350420
   0.56812182  0.56112524  0.29744570
   0.68207446  0.69469937  0.29811512
   0.69142221  0.55472246  0.44380726
   0.57782546  0.70985928  0.44236546
   0.29957225  0.31872694  0.57106680
   0.44657022  0.41355225  0.56299294
   0.44036107  0.27543451  0.70138412
   0.30907080  0.43439096  0.70874635
   0.57063875  0.27556705  0.54818043
   0.67589944  0.43485397  0.55487802
   0.68808479  0.30270891  0.68790286
   0.57173656  0.45009755  0.68850143
   0.29353810  0.55861798  0.58198000
   0.42055190  0.71662690  0.55746852
   0.44003223  0.56210976  0.70541673
   0.31344047  0.71026457  0.70181333
   0.55812968  0.55713539  0.56861488
   0.71097501  0.71716496  0.56299461
   0.69678735  0.55105051  0.70559005
   0.55744488  0.69553474  0.70412326
Direct configuration=    14
   0.29684937  0.30879928  0.29187760
   0.44280133  0.45353939  0.30948366
   0.41881856  0.30037519  0.42983140
   0.29132674  0.43728617  0.44436653
   0.58717107  0.30368425  0.28117983
   0.70248726  0.44909301  0.31016495
   0.70274266  0.28729862  0.43449032
   0.54292452  0.42623365  0.42267804
   0.31040328  0.55415711  0.31909413
   0.43829377  0.71752933  0.28371304
   0.43304604  0.55782249  0.44029749
   0.30585557  0.68848942  0.42221857
   0.56779733  0.56145718  0.29701890
   0.68068227  0.69644043  0.29772271
   0.69186591  0.55545033  0.44429360
   0.57684936  0.71307323  0.44342129
   0.29735654  0.32052476  0.57143506
   0.44597884  0.41273912  0.56581491
   0.44026791  0.27331885  0.70290024
   0.30772510  0.43316222  0.70871047
   0.57078119  0.27079386  0.54653462
   0.67550327  0.43626315  0.55305280
   0.68926346  0.30143003  0.68856491
   0.57305378  0.45005486  0.68785765
   0.29079896  0.55939165  0.58227724
   0.41989752  0.71846248  0.55623495
   0.44041155  0.56370562  0.70723061
   0.31463563  0.71292799  0.70179476
   0.56006512  0.55544914  0.56758623
   0.71427261  0.72068762  0.56285969
   0.69806874  0.55012186  0.70676827
   0.55900473  0.69723770  0.70552553
Direct configuration=    15
   0.29828884  0.30799845  0.29240956
   0.44183429  0.45442104  0.30882376
   0.41627351  0.29753470  0.42873865
   0.29027652  0.43570307  0.44334943
   0.58787240  0.30337550  0.27914682
   0.70412833  0.44979530  0.30942711
   0.70582637  0.28476195  0.43384734
   0.54264084  0.42735254  0.42446895
   0.30884067  0.55398716  0.31989624
   0.43948336  0.71546845  0.28562722
   0.43340827  0.55745906  0.43944516
   0.30360041  0.68923136  0.42086079
   0.56745742  0.56188037  0.29629117
   0.67943753  0.69825567  0.29708202
   0.69248507  0.55643337  0.44457424
   0.57627439  0.71418992  0.44354102
   0.29592097  0.32077600  0.57227547
   0.44527929  0.41192293  0.56866719
   0.44016569  0.27104938  0.70439333
   0.30626202  0.43182566  0.70881322
   0.57080504  0.26579977  0.54483213
   0.67539882  0.43727506  0.55118330
   0.68756692  0.30282980  0.68959943
   0.57413341  0.44951349  0.68756276
   0.28792019  0.56018426  0.58244515
   0.41931864  0.72035022  0.55493395
   0.44063493  0.56528874  0.70908625
   0.31568564  0.71560684  0.70181844
   0.56187123  0.55413341  0.56629830
   0.71766629  0.72420141  0.56267279
   0.69963952  0.54934589  0.70798729
   0.56060317  0.69904921  0.70690150
Direct configuration=    16
   0.29980277  0.30716422  0.29269232
   0.44078323  0.45498033  0.30750274
   0.41393243  0.29444250  0.42747766
   0.28920589  0.43410283  0.44218185
   0.58708711  0.30376733  0.27981609
   0.70533434  0.44749349  0.31041066
   0.70709407  0.28222896  0.43251153
   0.54294570  0.42829284  0.42629440
   0.30710999  0.55392857  0.32020451
   0.44086644  0.71349654  0.28735090
   0.43391870  0.55739177  0.43869599
   0.30132495  0.69022779  0.41945703
   0.56730542  0.56245418  0.29527381
   0.67853114  0.70022459  0.29617279
   0.69348350  0.55775568  0.44460557
   0.57576916  0.71543463  0.44355324
   0.29439956  0.32075257  0.57306107
   0.44466633  0.41115491  0.57152055
   0.44105127  0.26954858  0.70400802
   0.30488315  0.43048220  0.70904436
   0.57090012  0.26067381  0.54305943
   0.67580248  0.43790803  0.54927758
   0.68615964  0.30414368  0.69064468
   0.57372058  0.44933977  0.68867674
   0.28510473  0.56105940  0.58246623
   0.41899971  0.72236307  0.55356107
   0.44091384  0.56691309  0.71094593
   0.31679351  0.71839186  0.70186523
   0.56367999  0.55330315  0.56479595
   0.72132274  0.72777891  0.56243895
   0.70169056  0.54877702  0.70919775
   0.56241696  0.70102370  0.70823536
Direct configuration=    17
   0.30110050  0.30622632  0.29285006
   0.44071071  0.45540908  0.30595172
   0.41156343  0.29104733  0.42626334
   0.28788757  0.43240278  0.44105165
   0.58617425  0.30400508  0.28043539
   0.70666340  0.44499097  0.31128428
   0.70847653  0.27955698  0.43116891
   0.54351453  0.42894730  0.42828791
   0.30612325  0.55308489  0.32227796
   0.44032089  0.71408864  0.28616496
   0.43430463  0.55754139  0.43823286
   0.29877418  0.69141155  0.41818190
   0.56711744  0.56307294  0.29414094
   0.67770868  0.70225474  0.29518296
   0.69460796  0.55933343  0.44453575
   0.57509062  0.71670890  0.44363829
   0.29257136  0.32034042  0.57395459
   0.44390777  0.41035083  0.57449970
   0.44187322  0.26789984  0.70379127
   0.30335093  0.42905979  0.70957875
   0.57080851  0.25534550  0.54141851
   0.67647141  0.43804132  0.54754296
   0.68695892  0.30555976  0.69054836
   0.57304114  0.44873119  0.69028726
   0.28210912  0.56191861  0.58251529
   0.41867824  0.72440821  0.55228483
   0.44100570  0.56847928  0.71297052
   0.31770780  0.72118399  0.70211438
   0.56521770  0.55288724  0.56330410
   0.72498275  0.73132708  0.56231119
   0.70397059  0.54831881  0.71055159
   0.56420625  0.70306581  0.70967781
Direct configuration=    18
   0.30238818  0.30535659  0.29283521
   0.44059253  0.45560667  0.30396817
   0.40941706  0.28757758  0.42512516
   0.28654888  0.43078202  0.43997379
   0.58533659  0.30425651  0.28097559
   0.70830036  0.44250697  0.31203902
   0.71014803  0.27692150  0.42979632
   0.54449287  0.42948236  0.43036140
   0.30495777  0.55244375  0.32400618
   0.43992430  0.71486271  0.28493046
   0.43476768  0.55808194  0.43802810
   0.29617900  0.69294264  0.41700975
   0.56713448  0.56389689  0.29286949
   0.67717470  0.70453565  0.29408394
   0.69481221  0.55951602  0.44379247
   0.57448812  0.71818831  0.44376797
   0.29067681  0.31971426  0.57490458
   0.44321606  0.40966926  0.57752717
   0.44283085  0.26626357  0.70369660
   0.30189413  0.42775220  0.71038384
   0.57075026  0.25000024  0.53986593
   0.67763832  0.43783489  0.54596363
   0.68507496  0.30542901  0.69022208
   0.57234585  0.44791471  0.69232740
   0.27915402  0.56293749  0.58255882
   0.41856187  0.72665423  0.55105874
   0.44113135  0.57015969  0.71512284
   0.31865963  0.72415984  0.70253539
   0.56669556  0.55306131  0.56183577
   0.72884756  0.73501173  0.56225201
   0.70666468  0.54813553  0.71200938
   0.56619533  0.70534396  0.71117279
Direct configuration=    19
   0.30343717  0.30432366  0.29278002
   0.44024878  0.45532231  0.30175039
   0.40843018  0.28790053  0.42266882
   0.28498031  0.42898349  0.43913110
   0.58618175  0.30387100  0.27911459
   0.71001570  0.43982182  0.31283229
   0.70950697  0.27678333  0.43008418
   0.54558801  0.42962583  0.43260642
   0.30342221  0.55176703  0.32553760
   0.43947476  0.71556959  0.28379838
   0.43507591  0.55875236  0.43822623
   0.29333184  0.69455318  0.41608786
   0.56715409  0.56467593  0.29162407
   0.67672526  0.70680516  0.29304181
   0.69514847  0.55991433  0.44303933
   0.57482864  0.71665933  0.44269639
   0.28945592  0.31960955  0.57422276
   0.44239718  0.40888181  0.58071079
   0.44370070  0.26441254  0.70388640
   0.30030396  0.42633254  0.71159704
   0.57053726  0.24441190  0.53856482
   0.67909308  0.43703827  0.54472245
   0.68322867  0.30505283  0.69017768
   0.57146836  0.44672243  0.69487697
   0.27604312  0.56387731  0.58276473
   0.41843638  0.72882096  0.55004242
   0.44107694  0.57171636  0.71755781
   0.31942670  0.72707838  0.70326381
   0.56788964  0.55356507  0.56060107
   0.73269569  0.73858647  0.56240908
   0.70952035  0.54795301  0.71371742
   0.56817605  0.70761171  0.71286529
Direct configuration=    20
   0.30428806  0.30318605  0.29240144
   0.44100961  0.45537907  0.30205034
   0.40757522  0.28798338  0.42025736
   0.28323228  0.42707143  0.43827572
   0.58693225  0.30332804  0.27707858
   0.71185965  0.43701357  0.31342706
   0.70886367  0.27753660  0.42891542
   0.54679848  0.42944930  0.43472485
   0.30157987  0.55111593  0.32662309
   0.43901465  0.71626362  0.28252478
   0.43527596  0.55957484  0.43855428
   0.29029875  0.69629715  0.41517101
   0.56724260  0.56546067  0.29018144
   0.67561156  0.70751267  0.29318262
   0.69568079  0.56058111  0.44202497
   0.57510401  0.71515400  0.44158646
   0.28803082  0.31912438  0.57349719
   0.44150988  0.40805797  0.58381257
   0.44453116  0.26239495  0.70410868
   0.29862700  0.42486963  0.71296785
   0.57021206  0.23864025  0.53724812
   0.67948875  0.43841730  0.54316380
   0.68146304  0.30448643  0.69015110
   0.57048882  0.44526305  0.69763447
   0.27482321  0.56437543  0.58253933
   0.41834967  0.73098589  0.54897681
   0.44090640  0.57322336  0.72000323
   0.32006881  0.72997038  0.70405623
   0.56886103  0.55442400  0.55939597
   0.73656712  0.74213755  0.56251846
   0.71252430  0.54781223  0.71543364
   0.57018052  0.70990977  0.71451314
Direct configuration=    21
   0.30495737  0.30187435  0.29183409
   0.44167903  0.45501094  0.30211098
   0.40693151  0.28777231  0.41810365
   0.28134265  0.42499833  0.43757171
   0.58763076  0.30256537  0.27503935
   0.71384317  0.43405206  0.31398109
   0.70838226  0.27808886  0.42781428
   0.54810540  0.42888069  0.43684666
   0.29949608  0.55043414  0.32743177
   0.43856796  0.71688137  0.28127648
   0.43539935  0.56046447  0.43916715
   0.28715376  0.69810383  0.41442935
   0.56743714  0.56617025  0.28874235
   0.67469074  0.70818567  0.29332894
   0.69546815  0.56156259  0.44328403
   0.57534483  0.71363391  0.44063774
   0.28644700  0.31821122  0.57290960
   0.44051344  0.40763972  0.58516565
   0.44536380  0.26013718  0.70453221
   0.29690343  0.42331340  0.71466080
   0.57133742  0.23814811  0.53562119
   0.68026994  0.43919733  0.54195308
   0.68141089  0.30721549  0.68953065
   0.57276321  0.44499281  0.69771952
   0.27355407  0.56478133  0.58239284
   0.41832203  0.73308311  0.54803095
   0.44065095  0.57460042  0.72259853
   0.31832886  0.73035973  0.70299914
   0.56879415  0.55498081  0.55961350
   0.73797228  0.74191456  0.56408101
   0.71568855  0.54760610  0.71730763
   0.57224983  0.71213954  0.71628408
Direct configuration=    22
   0.30540910  0.30040793  0.29085048
   0.44222650  0.45426465  0.30174598
   0.40742234  0.28777866  0.41928687
   0.27930245  0.42279658  0.43679230
   0.58825027  0.30161321  0.27279574
   0.71595127  0.43098029  0.31429770
   0.70946372  0.27859392  0.42644183
   0.54945116  0.42796448  0.43873967
   0.29716316  0.54974541  0.32776493
   0.43811816  0.71745643  0.27983325
   0.43543139  0.56142695  0.43983259
   0.28388456  0.69998968  0.41363299
   0.56772799  0.56681853  0.28708905
   0.67393097  0.70887088  0.29326604
   0.69550050  0.56279149  0.44417778
   0.57517272  0.71428995  0.44097038
   0.28469671  0.31690733  0.57227120
   0.43949440  0.40715321  0.58634177
   0.44617996  0.25768516  0.70492422
   0.29510207  0.42170092  0.71645319
   0.57236724  0.23746980  0.53394607
   0.68143567  0.43939272  0.54091345
   0.68148036  0.30968477  0.68886853
   0.57495357  0.44451168  0.69792712
   0.27224485  0.56510631  0.58212076
   0.41832982  0.73513590  0.54698612
   0.44031053  0.57585840  0.72515015
   0.31649378  0.73069087  0.70193928
   0.56850240  0.55583109  0.55990853
   0.73940822  0.74159972  0.56555264
   0.71722400  0.54816343  0.71820532
   0.57437013  0.71431963  0.71797408
Direct configuration=    23
   0.30552915  0.29882066  0.28936385
   0.44250977  0.45319687  0.30087420
   0.40798774  0.28756376  0.42040902
   0.27944312  0.42397275  0.43577711
   0.58860392  0.30246961  0.27383074
   0.71805275  0.42786177  0.31426029
   0.71054829  0.27894351  0.42481340
   0.55066757  0.42675314  0.44026372
   0.29446111  0.54908067  0.32753057
   0.43751703  0.71802039  0.27809900
   0.43522985  0.56248369  0.44039966
   0.28222105  0.69939015  0.41465803
   0.56797249  0.56742210  0.28508715
   0.67319243  0.70961950  0.29285061
   0.69561933  0.56429219  0.44455749
   0.57480539  0.71500949  0.44113908
   0.28265795  0.31526448  0.57148089
   0.43831715  0.40663099  0.58722630
   0.44684777  0.25508173  0.70514904
   0.29308236  0.42007772  0.71821153
   0.57317707  0.23664414  0.53208528
   0.68285689  0.43906388  0.53994844
   0.68155326  0.31187406  0.68804830
   0.57687864  0.44389867  0.69814598
   0.27125846  0.56511371  0.58256545
   0.41823117  0.73718442  0.54572238
   0.43973607  0.57706287  0.72753010
   0.31443944  0.73101229  0.70075813
   0.56787405  0.55698843  0.56016631
   0.74074354  0.74124289  0.56681399
   0.71859857  0.54847019  0.71977288
   0.57638663  0.71648930  0.71946108
Direct configuration=    24
   0.30636806  0.29702625  0.28796199
   0.44255132  0.45196731  0.29994975
   0.40861564  0.28726232  0.42186976
   0.28161847  0.42592085  0.43354716
   0.58918990  0.30442408  0.27470291
   0.72016488  0.42486204  0.31430050
   0.71166663  0.27925256  0.42336084
   0.55173646  0.42539492  0.44183063
   0.29144366  0.54859599  0.32714916
   0.43677884  0.71869347  0.27649769
   0.43480763  0.56374452  0.44126463
   0.28032921  0.69902682  0.41593807
   0.56817427  0.56809075  0.28316319
   0.67308261  0.70873192  0.29172113
   0.69583629  0.56617939  0.44482523
   0.57428363  0.71591977  0.44156650
   0.28033821  0.31342222  0.57095620
   0.43700725  0.40621013  0.58827355
   0.44737890  0.25247832  0.70565161
   0.29087909  0.41854975  0.72032667
   0.57379561  0.23579227  0.53048775
   0.68454197  0.43838158  0.53949266
   0.68167314  0.31388033  0.68749254
   0.57851634  0.44331873  0.69877015
   0.27011396  0.56519553  0.58319114
   0.41804765  0.73935828  0.54466917
   0.43900110  0.57831127  0.73015242
   0.31218395  0.73143526  0.69986353
   0.56859924  0.55916869  0.56118284
   0.73946394  0.74030481  0.56613256
   0.72000398  0.54891845  0.72157382