   21   21   99    2
  0.2197550E+02  0.3886808E-09  0.3886808E-09  0.3054723E-08  0.5000000E-15
  1.000000000000000E-004
  CAR 
 unknown system                          
    174      3    116
