       N       E                     dE             d eps       ncg     rms          rms(c)
DAV:   1     0.147273545066E+04    0.14727E+04   -0.72649E+04  1552   0.104E+03
DAV:   2    -0.328548902140E+02   -0.15056E+04   -0.14345E+04  1468   0.374E+02
DAV:   3    -0.153787729802E+03   -0.12093E+03   -0.11906E+03  1672   0.116E+02
DAV:   4    -0.159252419337E+03   -0.54647E+01   -0.54404E+01  2232   0.241E+01
DAV:   5    -0.159683137075E+03   -0.43072E+00   -0.43048E+00  2376   0.406E+00    0.595E+01
RMM:   6    -0.697649723953E+03   -0.53797E+03   -0.91247E+02  1653   0.111E+02    0.114E+02
RMM:   7    -0.780600888635E+03   -0.82951E+02   -0.82631E+02  1750   0.577E+01    0.982E+01
RMM:   8    -0.254492745835E+03    0.52611E+03   -0.91007E+01  1422   0.314E+01    0.874E+01
RMM:   9    -0.125179579172E+03    0.12931E+03   -0.26940E+01  1399   0.193E+01    0.472E+01
RMM:  10    -0.121823155764E+03    0.33564E+01   -0.22931E+00  1451   0.572E+00    0.324E+01
RMM:  11    -0.126310554629E+03   -0.44874E+01   -0.11934E+00  1422   0.349E+00    0.389E+01
RMM:  12    -0.121190435424E+03    0.51201E+01   -0.60409E-01  1420   0.214E+00    0.267E+01
RMM:  13    -0.127040816560E+03   -0.58504E+01   -0.17941E+00  1393   0.399E+00    0.335E+01
RMM:  14    -0.135848721782E+03   -0.88079E+01   -0.14701E+00  1396   0.432E+00    0.497E+01
RMM:  15    -0.138288873918E+03   -0.24402E+01   -0.11021E+00  1419   0.329E+00    0.499E+01
RMM:  16    -0.136279273578E+03    0.20096E+01   -0.41442E+00  1404   0.592E+00    0.446E+01
RMM:  17    -0.131441501790E+03    0.48378E+01   -0.21218E+00  1433   0.486E+00    0.380E+01
RMM:  18    -0.129433610467E+03    0.20079E+01   -0.84276E-01  1466   0.323E+00    0.351E+01
RMM:  19    -0.128795276451E+03    0.63833E+00   -0.25203E-01  1485   0.159E+00    0.343E+01
RMM:  20    -0.125498450017E+03    0.32968E+01   -0.11204E+00  1410   0.317E+00    0.163E+01
RMM:  21    -0.125952464943E+03   -0.45401E+00   -0.35283E-01  1442   0.212E+00    0.169E+01
RMM:  22    -0.125858360670E+03    0.94104E-01   -0.12283E-01  1529   0.111E+00    0.170E+01
RMM:  23    -0.125487735803E+03    0.37062E+00   -0.76052E-02  1524   0.903E-01    0.151E+01
RMM:  24    -0.125012440068E+03    0.47530E+00   -0.20524E-01  1436   0.144E+00    0.122E+01
RMM:  25    -0.125047023243E+03   -0.34583E-01   -0.64120E-02  1484   0.789E-01    0.118E+01
RMM:  26    -0.124979130847E+03    0.67892E-01   -0.56245E-02  1495   0.787E-01    0.102E+01
RMM:  27    -0.124980749608E+03   -0.16188E-02   -0.64588E-02  1438   0.774E-01    0.882E+00
RMM:  28    -0.124946493928E+03    0.34256E-01   -0.24559E-02  1425   0.476E-01    0.786E+00
RMM:  29    -0.124886203086E+03    0.60291E-01   -0.92018E-03  1414   0.275E-01    0.757E+00
RMM:  30    -0.125052800679E+03   -0.16660E+00   -0.10128E-01  1396   0.914E-01    0.612E+00
RMM:  31    -0.125210237123E+03   -0.15744E+00   -0.12136E-01  1399   0.104E+00    0.482E+00
RMM:  32    -0.125328888931E+03   -0.11865E+00   -0.41514E-02  1423   0.595E-01    0.520E+00
RMM:  33    -0.125522412334E+03   -0.19352E+00   -0.19279E-01  1389   0.135E+00    0.320E+00
RMM:  34    -0.125642056656E+03   -0.11964E+00   -0.58363E-02  1415   0.701E-01    0.842E+00
RMM:  35    -0.125710205973E+03   -0.68149E-01   -0.79913E-02  1393   0.726E-01    0.892E+00
RMM:  36    -0.125656961259E+03    0.53245E-01   -0.67918E-02  1400   0.656E-01    0.967E+00
RMM:  37    -0.125612732565E+03    0.44229E-01   -0.25777E-02  1385   0.413E-01    0.922E+00
RMM:  38    -0.125569706025E+03    0.43027E-01   -0.32904E-02  1370   0.404E-01    0.450E+00
RMM:  39    -0.125800142138E+03   -0.23044E+00   -0.35780E-02  1339   0.444E-01    0.330E+00
RMM:  40    -0.125825408568E+03   -0.25266E-01   -0.31119E-02  1373   0.460E-01    0.340E+00
RMM:  41    -0.125879164576E+03   -0.53756E-01   -0.19914E-02  1354   0.389E-01    0.408E+00
RMM:  42    -0.125955232484E+03   -0.76068E-01   -0.37103E-02  1382   0.457E-01    0.823E+00
RMM:  43    -0.125896109793E+03    0.59123E-01   -0.46169E-03  1251   0.205E-01    0.780E+00
RMM:  44    -0.125940096289E+03   -0.43986E-01   -0.30671E-03  1275   0.163E-01    0.828E+00
RMM:  45    -0.125944475248E+03   -0.43790E-02   -0.11524E-03  1089   0.911E-02    0.829E+00
RMM:  46    -0.125963498510E+03   -0.19023E-01   -0.79280E-04   969   0.652E-02    0.844E+00
RMM:  47    -0.125937106053E+03    0.26392E-01   -0.28930E-04   884   0.522E-02    0.826E+00
RMM:  48    -0.125889834103E+03    0.47272E-01   -0.30201E-03  1214   0.132E-01    0.694E+00
RMM:  49    -0.125718613645E+03    0.17122E+00   -0.69117E-02  1316   0.416E-01    0.539E+00
RMM:  50    -0.125593307875E+03    0.12531E+00   -0.72149E-02  1287   0.367E-01    0.545E+00
RMM:  51    -0.125538328642E+03    0.54979E-01   -0.11590E-02  1330   0.298E-01    0.456E+00
RMM:  52    -0.125634618196E+03   -0.96290E-01   -0.77921E-03  1372   0.283E-01    0.517E+00
RMM:  53    -0.125748043732E+03   -0.11343E+00   -0.63001E-02  1328   0.409E-01    0.454E+00
RMM:  54    -0.125515594363E+03    0.23245E+00   -0.83652E-02  1321   0.438E-01    0.482E+00
RMM:  55    -0.125746091975E+03   -0.23050E+00   -0.64997E-02  1253   0.355E-01    0.495E+00
RMM:  56    -0.126013269389E+03   -0.26718E+00   -0.16893E-01  1381   0.989E-01    0.659E+00
RMM:  57    -0.126006618405E+03    0.66510E-02   -0.19539E-02  1359   0.400E-01    0.529E+00
RMM:  58    -0.126028322574E+03   -0.21704E-01   -0.10921E-02  1343   0.245E-01    0.489E+00
RMM:  59    -0.126063738927E+03   -0.35416E-01   -0.26004E-02  1335   0.343E-01    0.537E+00
RMM:  60    -0.126088114811E+03   -0.24376E-01   -0.66694E-03  1245   0.181E-01    0.566E+00
RMM:  61    -0.126014367931E+03    0.73747E-01   -0.17754E-02  1312   0.303E-01    0.520E+00
RMM:  62    -0.126014269995E+03    0.97936E-04   -0.48105E-03  1249   0.177E-01    0.627E+00
RMM:  63    -0.126037278402E+03   -0.23008E-01   -0.28377E-03  1102   0.127E-01    0.650E+00
RMM:  64    -0.126034993085E+03    0.22853E-02   -0.21974E-04   852   0.430E-02    0.647E+00
RMM:  65    -0.126031706523E+03    0.32866E-02   -0.99034E-04   977   0.711E-02    0.671E+00
RMM:  66    -0.125966947361E+03    0.64759E-01   -0.72946E-03  1326   0.238E-01    0.574E+00
RMM:  67    -0.125940704295E+03    0.26243E-01   -0.54431E-03  1293   0.173E-01    0.654E+00
RMM:  68    -0.125917437127E+03    0.23267E-01   -0.26916E-03  1131   0.115E-01    0.691E+00
RMM:  69    -0.125879539704E+03    0.37897E-01   -0.15766E-03  1043   0.874E-02    0.608E+00
RMM:  70    -0.125897713631E+03   -0.18174E-01   -0.23981E-03  1170   0.115E-01    0.477E+00
RMM:  71    -0.125927512674E+03   -0.29799E-01   -0.31296E-03  1243   0.158E-01    0.567E+00
RMM:  72    -0.125895844312E+03    0.31668E-01   -0.11871E-03  1077   0.869E-02    0.419E+00
RMM:  73    -0.125901004339E+03   -0.51600E-02   -0.32880E-03  1219   0.135E-01    0.338E+00
RMM:  74    -0.125905808986E+03   -0.48046E-02   -0.25971E-03  1159   0.114E-01    0.296E+00
RMM:  75    -0.125897735338E+03    0.80736E-02   -0.24731E-03  1147   0.121E-01    0.124E+00
RMM:  76    -0.125902762448E+03   -0.50271E-02   -0.21277E-03  1119   0.116E-01    0.169E+00
RMM:  77    -0.125901386235E+03    0.13762E-02   -0.19775E-03  1046   0.995E-02    0.107E+00
RMM:  78    -0.125916176169E+03   -0.14790E-01   -0.26812E-03  1090   0.121E-01    0.205E+00
RMM:  79    -0.125918587328E+03   -0.24112E-02   -0.41601E-03  1128   0.140E-01    0.153E+00
RMM:  80    -0.125922427780E+03   -0.38405E-02   -0.14719E-03  1011   0.846E-02    0.119E+00
RMM:  81    -0.125925346842E+03   -0.29191E-02   -0.45284E-04   906   0.557E-02    0.831E-01
RMM:  82    -0.125927028645E+03   -0.16818E-02   -0.25309E-04   864   0.477E-02    0.277E-01
RMM:  83    -0.125929841694E+03   -0.28130E-02   -0.20174E-04   860   0.402E-02    0.212E-01
RMM:  84    -0.125932364978E+03   -0.25233E-02   -0.64028E-05   786   0.226E-02    0.439E-01
RMM:  85    -0.125933073769E+03   -0.70879E-03   -0.63905E-05   713   0.206E-02    0.405E-01
RMM:  86    -0.125933148979E+03   -0.75210E-04   -0.28063E-05   584   0.131E-02
   1 F= -.12593315E+03 E0= -.12591750E+03  d E =-.125933E+03  mag=    18.1402
       N       E                     dE             d eps       ncg     rms          rms(c)
DAV:   1    -0.125890117133E+03    0.42957E-01   -0.31004E+00  1744   0.133E+01    0.284E+00
RMM:   2    -0.136830018532E+03   -0.10940E+02   -0.11709E+00  1511   0.261E+00    0.274E+01
RMM:   3    -0.126006053597E+03    0.10824E+02   -0.76123E-01  1415   0.213E+00    0.659E+00
RMM:   4    -0.126178415261E+03   -0.17236E+00   -0.39264E-02  1440   0.765E-01    0.629E+00
RMM:   5    -0.126366165097E+03   -0.18775E+00   -0.12269E-01  1397   0.832E-01    0.107E+01
RMM:   6    -0.125956008288E+03    0.41016E+00   -0.16660E-01  1395   0.123E+00    0.294E+00
RMM:   7    -0.125973145776E+03   -0.17137E-01   -0.52627E-02  1377   0.630E-01    0.310E+00
RMM:   8    -0.125965862603E+03    0.72832E-02   -0.14772E-02  1356   0.333E-01    0.194E+00
RMM:   9    -0.125950015690E+03    0.15847E-01   -0.83217E-03  1339   0.239E-01    0.208E+00
RMM:  10    -0.125950260757E+03   -0.24507E-03   -0.56439E-03  1320   0.213E-01    0.216E+00
RMM:  11    -0.125940449624E+03    0.98111E-02   -0.33260E-03  1248   0.174E-01    0.124E+00
RMM:  12    -0.125937940095E+03    0.25095E-02   -0.19858E-03  1206   0.119E-01    0.623E-01
RMM:  13    -0.125939967641E+03   -0.20275E-02   -0.10060E-03  1126   0.937E-02    0.531E-01
RMM:  14    -0.125944133013E+03   -0.41654E-02   -0.10710E-03  1105   0.914E-02    0.125E+00
RMM:  15    -0.125940700244E+03    0.34328E-02   -0.73767E-04  1041   0.836E-02    0.466E-01
RMM:  16    -0.125942829479E+03   -0.21292E-02   -0.62069E-04   975   0.739E-02    0.307E-01
RMM:  17    -0.125944167076E+03   -0.13376E-02   -0.63732E-04   988   0.597E-02    0.182E-01
RMM:  18    -0.125944754294E+03   -0.58722E-03   -0.43273E-04   947   0.478E-02    0.131E-01
RMM:  19    -0.125945278073E+03   -0.52378E-03   -0.21848E-04   854   0.333E-02    0.340E-01
RMM:  20    -0.125945420101E+03   -0.14203E-03   -0.98661E-05   821   0.338E-02    0.100E-01
RMM:  21    -0.125945749542E+03   -0.32944E-03   -0.79959E-05   751   0.254E-02    0.177E-01
RMM:  22    -0.125945752662E+03   -0.31200E-05   -0.30896E-05   700   0.169E-02
   2 F= -.12594575E+03 E0= -.12593016E+03  d E =-.126037E-01  mag=    18.1583
       N       E                     dE             d eps       ncg     rms          rms(c)
DAV:   1    -0.125945632902E+03    0.11664E-03   -0.78537E-03  1704   0.676E-01    0.176E-01
RMM:   2    -0.126002193488E+03   -0.56561E-01   -0.45936E-03  1367   0.164E-01    0.418E+00
RMM:   3    -0.125943963716E+03    0.58230E-01   -0.57165E-03  1264   0.192E-01    0.257E+00
RMM:   4    -0.125948035925E+03   -0.40722E-02   -0.44601E-03  1171   0.195E-01    0.204E+00
RMM:   5    -0.125943362514E+03    0.46734E-02   -0.49272E-04   919   0.701E-02    0.106E+00
RMM:   6    -0.125945334171E+03   -0.19717E-02   -0.12869E-03  1023   0.848E-02    0.120E+00
RMM:   7    -0.125942329792E+03    0.30044E-02   -0.41165E-04   949   0.531E-02    0.252E-01
RMM:   8    -0.125943612362E+03   -0.12826E-02   -0.24066E-04   846   0.475E-02    0.430E-01
RMM:   9    -0.125943348018E+03    0.26434E-03   -0.13465E-05   681   0.146E-02    0.371E-01
RMM:  10    -0.125942858226E+03    0.48979E-03   -0.15788E-05   612   0.115E-02    0.341E-01
RMM:  11    -0.125942561735E+03    0.29649E-03   -0.78082E-06   493   0.869E-03    0.315E-01
RMM:  12    -0.125942735398E+03   -0.17366E-03   -0.37323E-06   407   0.781E-03    0.325E-01
RMM:  13    -0.125943176649E+03   -0.44125E-03   -0.11933E-05   432   0.835E-03    0.318E-01
RMM:  14    -0.125944041025E+03   -0.86438E-03   -0.86796E-05   714   0.170E-02    0.159E-01
RMM:  15    -0.125945116890E+03   -0.10759E-02   -0.25620E-04   810   0.273E-02    0.151E-01
RMM:  16    -0.125945317747E+03   -0.20086E-03   -0.53476E-05   687   0.171E-02    0.268E-01
RMM:  17    -0.125945263266E+03    0.54481E-04   -0.94432E-05   714   0.235E-02
   3 F= -.12594526E+03 E0= -.12592949E+03  d E =-.121143E-01  mag=    18.1631
       N       E                     dE             d eps       ncg     rms          rms(c)
DAV:   1    -0.125944448389E+03    0.86936E-03   -0.74000E-01  1724   0.614E+00    0.234E+00
RMM:   2    -0.134272370338E+03   -0.83279E+01   -0.59201E-01  1445   0.157E+00    0.231E+01
RMM:   3    -0.125887879873E+03    0.83845E+01   -0.54067E-01  1405   0.156E+00    0.826E+00
RMM:   4    -0.126451300079E+03   -0.56342E+00   -0.12574E-01  1401   0.924E-01    0.772E+00
RMM:   5    -0.126120293794E+03    0.33101E+00   -0.82606E-02  1400   0.724E-01    0.782E+00
RMM:   6    -0.126010387758E+03    0.10991E+00   -0.76827E-02  1402   0.881E-01    0.426E+00
RMM:   7    -0.125949402150E+03    0.60986E-01   -0.22905E-02  1382   0.406E-01    0.155E+00
RMM:   8    -0.125946206364E+03    0.31958E-02   -0.13712E-02  1355   0.311E-01    0.994E-01
RMM:   9    -0.125949313694E+03   -0.31073E-02   -0.33237E-03  1266   0.166E-01    0.503E-01
RMM:  10    -0.125949494362E+03   -0.18067E-03   -0.10066E-03  1121   0.935E-02    0.702E-01
RMM:  11    -0.125949859456E+03   -0.36509E-03   -0.69032E-04  1058   0.776E-02    0.118E+00
RMM:  12    -0.125949809634E+03    0.49822E-04   -0.15265E-03  1087   0.109E-01    0.116E+00
RMM:  13    -0.125948121094E+03    0.16885E-02   -0.94298E-04   983   0.908E-02    0.189E-01
RMM:  14    -0.125948279689E+03   -0.15860E-03   -0.35811E-04   898   0.497E-02    0.125E-01
RMM:  15    -0.125948096422E+03    0.18327E-03   -0.14239E-04   842   0.331E-02    0.422E-01
RMM:  16    -0.125947214326E+03    0.88210E-03   -0.15623E-04   842   0.359E-02    0.101E-01
RMM:  17    -0.125947021868E+03    0.19246E-03   -0.70070E-05   723   0.209E-02    0.943E-02
RMM:  18    -0.125946705721E+03    0.31615E-03   -0.26296E-05   713   0.149E-02    0.322E-01
RMM:  19    -0.125946073632E+03    0.63209E-03   -0.62197E-05   697   0.197E-02    0.190E-01
RMM:  20    -0.125945625003E+03    0.44863E-03   -0.21011E-05   577   0.112E-02    0.329E-01
RMM:  21    -0.125945716765E+03   -0.91762E-04   -0.77408E-06   489   0.100E-02
   4 F= -.12594572E+03 E0= -.12593003E+03  d E =-.453499E-03  mag=    18.1528
       N       E                     dE             d eps       ncg     rms          rms(c)
DAV:   1    -0.125935612280E+03    0.10013E-01   -0.29035E+00  1692   0.121E+01    0.472E+00
RMM:   2    -0.154099693237E+03   -0.28164E+02   -0.21082E+00  1462   0.304E+00    0.540E+01
RMM:   3    -0.129561334997E+03    0.24538E+02   -0.12698E+00  1417   0.293E+00    0.222E+01
RMM:   4    -0.125730194441E+03    0.38311E+01   -0.96947E-01  1413   0.245E+00    0.414E+00
RMM:   5    -0.126117549308E+03   -0.38735E+00   -0.26198E-01  1414   0.133E+00    0.798E+00
RMM:   6    -0.126438887069E+03   -0.32134E+00   -0.50008E-02  1442   0.630E-01    0.906E+00
RMM:   7    -0.126113991649E+03    0.32490E+00   -0.23907E-01  1399   0.116E+00    0.737E+00
RMM:   8    -0.125924919799E+03    0.18907E+00   -0.66094E-02  1409   0.799E-01    0.450E+00
RMM:   9    -0.126144911513E+03   -0.21999E+00   -0.11347E-01  1394   0.851E-01    0.110E+01
RMM:  10    -0.125873136929E+03    0.27177E+00   -0.23352E-02  1393   0.468E-01    0.399E+00
RMM:  11    -0.125973575567E+03   -0.10044E+00   -0.10219E-01  1378   0.787E-01    0.450E+00
RMM:  12    -0.126007822546E+03   -0.34247E-01   -0.54934E-02  1397   0.627E-01    0.751E+00
RMM:  13    -0.125982312188E+03    0.25510E-01   -0.64252E-03  1298   0.236E-01    0.747E+00
RMM:  14    -0.125980340052E+03    0.19721E-02   -0.13278E-02  1320   0.276E-01    0.743E+00
RMM:  15    -0.125968504885E+03    0.11835E-01   -0.21649E-03  1148   0.115E-01    0.723E+00
RMM:  16    -0.125888966459E+03    0.79538E-01   -0.45948E-02  1351   0.437E-01    0.554E+00
RMM:  17    -0.125872880906E+03    0.16086E-01   -0.37870E-02  1362   0.408E-01    0.281E+00
RMM:  18    -0.126037072984E+03   -0.16419E+00   -0.58156E-02  1365   0.532E-01    0.625E+00
RMM:  19    -0.126076998788E+03   -0.39926E-01   -0.99829E-03  1321   0.262E-01    0.588E+00
RMM:  20    -0.126066534531E+03    0.10464E-01   -0.11139E-02  1330   0.252E-01    0.447E+00
RMM:  21    -0.126062129860E+03    0.44047E-02   -0.57091E-03  1277   0.179E-01    0.273E+00
RMM:  22    -0.126170963326E+03   -0.10883E+00   -0.14209E-02  1336   0.278E-01    0.395E+00
RMM:  23    -0.126164341736E+03    0.66216E-02   -0.85019E-03  1307   0.219E-01    0.152E+00
RMM:  24    -0.126203974724E+03   -0.39633E-01   -0.80037E-03  1348   0.257E-01    0.218E+00
RMM:  25    -0.126225172586E+03   -0.21198E-01   -0.34720E-03  1260   0.155E-01    0.313E+00
RMM:  26    -0.126271553764E+03   -0.46381E-01   -0.10373E-02  1326   0.252E-01    0.206E+00
RMM:  27    -0.126270115269E+03    0.14385E-02   -0.30671E-03  1226   0.150E-01    0.212E+00
RMM:  28    -0.126252911761E+03    0.17204E-01   -0.80632E-04   941   0.748E-02    0.200E+00
RMM:  29    -0.126247644995E+03    0.52668E-02   -0.13090E-02  1339   0.275E-01    0.156E+00
RMM:  30    -0.126310826571E+03   -0.63182E-01   -0.94402E-03  1311   0.211E-01    0.507E+00
RMM:  31    -0.126277950788E+03    0.32876E-01   -0.70662E-03  1278   0.209E-01    0.146E+00
RMM:  32    -0.126330112708E+03   -0.52162E-01   -0.87103E-03  1268   0.202E-01    0.202E+00
RMM:  33    -0.126375644732E+03   -0.45532E-01   -0.82304E-03  1312   0.215E-01    0.554E+00
RMM:  34    -0.126320836948E+03    0.54808E-01   -0.12418E-02  1214   0.225E-01    0.585E+00
RMM:  35    -0.126294190724E+03    0.26646E-01   -0.32677E-03  1084   0.121E-01    0.632E+00
RMM:  36    -0.126292783565E+03    0.14072E-02   -0.15383E-03  1086   0.970E-02    0.246E+00
RMM:  37    -0.126333317875E+03   -0.40534E-01   -0.18643E-03  1064   0.118E-01    0.288E+00
RMM:  38    -0.126334421714E+03   -0.11038E-02   -0.43179E-04   877   0.591E-02    0.179E+00
RMM:  39    -0.126345523543E+03   -0.11102E-01   -0.81936E-04   917   0.689E-02    0.198E+00
RMM:  40    -0.126349111093E+03   -0.35875E-02   -0.53771E-04   874   0.522E-02    0.158E+00
RMM:  41    -0.126351906253E+03   -0.27952E-02   -0.12282E-03   956   0.734E-02    0.860E-01
RMM:  42    -0.126356183702E+03   -0.42774E-02   -0.27234E-03   974   0.879E-02    0.837E-01
RMM:  43    -0.126357748645E+03   -0.15649E-02   -0.11397E-03   973   0.679E-02    0.542E-01
RMM:  44    -0.126357413299E+03    0.33535E-03   -0.10068E-03   955   0.650E-02    0.432E-01
RMM:  45    -0.126359610109E+03   -0.21968E-02   -0.67675E-04   883   0.560E-02    0.395E-01
RMM:  46    -0.126359498362E+03    0.11175E-03   -0.38254E-04   801   0.417E-02    0.400E-01
RMM:  47    -0.126352131624E+03    0.73667E-02   -0.29801E-03  1103   0.106E-01    0.107E+00
RMM:  48    -0.126354664321E+03   -0.25327E-02   -0.10308E-03   921   0.749E-02    0.804E-01
RMM:  49    -0.126351602012E+03    0.30623E-02   -0.45256E-04   809   0.432E-02    0.840E-01
RMM:  50    -0.126348625495E+03    0.29765E-02   -0.50210E-04   814   0.421E-02    0.975E-01
RMM:  51    -0.126343986373E+03    0.46391E-02   -0.55487E-04   811   0.433E-02    0.917E-01
RMM:  52    -0.126343663875E+03    0.32250E-03   -0.45258E-05   693   0.207E-02    0.956E-01
RMM:  53    -0.126342452457E+03    0.12114E-02   -0.66929E-05   610   0.167E-02    0.105E+00
RMM:  54    -0.126342803285E+03   -0.35083E-03   -0.16118E-05   558   0.126E-02    0.107E+00
RMM:  55    -0.126342835086E+03   -0.31800E-04   -0.57913E-06   442   0.817E-03
   5 F= -.12634284E+03 E0= -.12632733E+03  d E =-.397572E+00  mag=    19.2610
       N       E                     dE             d eps       ncg     rms          rms(c)
DAV:   1    -0.126343687748E+03   -0.88446E-03   -0.11388E+00  1688   0.762E+00    0.230E+00
RMM:   2    -0.131167504689E+03   -0.48238E+01   -0.80697E-01  1458   0.186E+00    0.170E+01
RMM:   3    -0.127034660812E+03    0.41328E+01   -0.36579E-01  1409   0.130E+00    0.140E+01
RMM:   4    -0.126649661680E+03    0.38500E+00   -0.10565E-01  1419   0.856E-01    0.117E+01
RMM:   5    -0.126576503458E+03    0.73158E-01   -0.71310E-03  1383   0.294E-01    0.107E+01
RMM:   6    -0.126234788843E+03    0.34171E+00   -0.83038E-02  1379   0.611E-01    0.426E+00
RMM:   7    -0.126337737085E+03   -0.10295E+00   -0.19323E-02  1390   0.442E-01    0.343E+00
RMM:   8    -0.126342894505E+03   -0.51574E-02   -0.75719E-03  1356   0.238E-01    0.390E+00
RMM:   9    -0.126367423545E+03   -0.24529E-01   -0.12015E-02  1300   0.246E-01    0.295E+00
RMM:  10    -0.126364280547E+03    0.31430E-02   -0.10397E-02  1329   0.256E-01    0.354E+00
RMM:  11    -0.126351674864E+03    0.12606E-01   -0.35412E-03  1267   0.179E-01    0.174E+00
RMM:  12    -0.126335421870E+03    0.16253E-01   -0.24796E-03  1163   0.122E-01    0.132E+00
RMM:  13    -0.126326195836E+03    0.92260E-02   -0.15080E-03   919   0.756E-02    0.135E+00
RMM:  14    -0.126331532570E+03   -0.53367E-02   -0.31541E-04   848   0.432E-02    0.130E+00
RMM:  15    -0.126342485739E+03   -0.10953E-01   -0.15107E-03   994   0.716E-02    0.132E+00
RMM:  16    -0.126357710447E+03   -0.15225E-01   -0.36669E-03  1046   0.102E-01    0.186E+00
RMM:  17    -0.126359832048E+03   -0.21216E-02   -0.15002E-03   925   0.738E-02    0.118E+00
RMM:  18    -0.126371521218E+03   -0.11689E-01   -0.68505E-03  1118   0.144E-01    0.845E-01
RMM:  19    -0.126377833124E+03   -0.63119E-02   -0.55581E-03  1185   0.151E-01    0.900E-01
RMM:  20    -0.126388203704E+03   -0.10371E-01   -0.13827E-02  1172   0.196E-01    0.222E+00
RMM:  21    -0.126351803039E+03    0.36401E-01   -0.12223E-02  1129   0.206E-01    0.139E+00
RMM:  22    -0.126378002106E+03   -0.26199E-01   -0.59452E-03  1023   0.132E-01    0.106E+00
RMM:  23    -0.126365558659E+03    0.12443E-01   -0.58805E-03  1024   0.124E-01    0.481E-01
RMM:  24    -0.126366985471E+03   -0.14268E-02   -0.42927E-03   982   0.104E-01    0.907E-01
RMM:  25    -0.126375209689E+03   -0.82242E-02   -0.15050E-03   910   0.790E-02    0.121E+00
RMM:  26    -0.126371698425E+03    0.35113E-02   -0.12209E-03   901   0.625E-02    0.871E-01
RMM:  27    -0.126364482790E+03    0.72156E-02   -0.17053E-03   871   0.706E-02    0.859E-01
RMM:  28    -0.126356241567E+03    0.82412E-02   -0.12935E-03   811   0.602E-02    0.860E-01
RMM:  29    -0.126349799121E+03    0.64424E-02   -0.66987E-04   785   0.462E-02    0.935E-01
RMM:  30    -0.126351891958E+03   -0.20928E-02   -0.37676E-05   599   0.188E-02    0.912E-01
RMM:  31    -0.126353886652E+03   -0.19947E-02   -0.62227E-05   554   0.150E-02    0.853E-01
RMM:  32    -0.126364119545E+03   -0.10233E-01   -0.16946E-03   826   0.646E-02    0.688E-01
RMM:  33    -0.126372858606E+03   -0.87391E-02   -0.27157E-03   872   0.818E-02    0.531E-01
RMM:  34    -0.126377042052E+03   -0.41834E-02   -0.25416E-03   920   0.783E-02    0.352E-01
RMM:  35    -0.126377216718E+03   -0.17467E-03   -0.31407E-04   705   0.339E-02    0.350E-01
RMM:  36    -0.126377193714E+03    0.23004E-04   -0.11525E-04   624   0.200E-02
   6 F= -.12637719E+03 E0= -.12636166E+03  d E =-.431930E+00  mag=    19.2470
       N       E                     dE             d eps       ncg     rms          rms(c)
DAV:   1    -0.126378685764E+03   -0.14690E-02   -0.15606E-01  1720   0.287E+00    0.105E+00
RMM:   2    -0.128620124922E+03   -0.22414E+01   -0.17782E-01  1421   0.836E-01    0.153E+01
RMM:   3    -0.126481357165E+03    0.21388E+01   -0.10736E-01  1387   0.706E-01    0.734E+00
RMM:   4    -0.126393788556E+03    0.87569E-01   -0.12730E-02  1370   0.397E-01    0.717E+00
RMM:   5    -0.126334692989E+03    0.59096E-01   -0.10019E-02  1304   0.240E-01    0.471E+00
RMM:   6    -0.126382951441E+03   -0.48258E-01   -0.15148E-03  1189   0.124E-01    0.533E+00
RMM:   7    -0.126275216275E+03    0.10774E+00   -0.18143E-02  1369   0.336E-01    0.312E+00
RMM:   8    -0.126367792514E+03   -0.92576E-01   -0.18149E-02  1345   0.353E-01    0.184E+00
RMM:   9    -0.126384521389E+03   -0.16729E-01   -0.60578E-03  1294   0.209E-01    0.269E+00
RMM:  10    -0.126381680558E+03    0.28408E-02   -0.14492E-03  1137   0.122E-01    0.122E+00
RMM:  11    -0.126382471613E+03   -0.79105E-03   -0.10901E-03  1132   0.909E-02    0.141E+00
RMM:  12    -0.126381892952E+03    0.57866E-03   -0.38612E-04   964   0.592E-02    0.131E+00
RMM:  13    -0.126379438717E+03    0.24542E-02   -0.20826E-04   865   0.424E-02    0.514E-01
RMM:  14    -0.126379020659E+03    0.41806E-03   -0.16851E-04   861   0.417E-02    0.549E-01
RMM:  15    -0.126378976847E+03    0.43813E-04   -0.95073E-05   809   0.266E-02
   7 F= -.12637898E+03 E0= -.12636301E+03  d E =-.433714E+00  mag=    19.2398
       N       E                     dE             d eps       ncg     rms          rms(c)
DAV:   1    -0.126379705040E+03   -0.68438E-03   -0.90657E-03  1784   0.699E-01    0.578E-01
RMM:   2    -0.126620912366E+03   -0.24121E+00   -0.40658E-02  1337   0.401E-01    0.710E+00
RMM:   3    -0.126458900311E+03    0.16201E+00   -0.25972E-02  1326   0.324E-01    0.694E+00
RMM:   4    -0.126465417922E+03   -0.65176E-02   -0.68507E-03  1248   0.260E-01    0.896E+00
RMM:   5    -0.126316419411E+03    0.14900E+00   -0.86007E-03  1308   0.229E-01    0.231E+00
RMM:   6    -0.126365932393E+03   -0.49513E-01   -0.12284E-02  1298   0.295E-01    0.783E-01
RMM:   7    -0.126374559929E+03   -0.86275E-02   -0.50157E-03  1180   0.165E-01    0.548E-01
RMM:   8    -0.126377869003E+03   -0.33091E-02   -0.66632E-04   966   0.723E-02    0.611E-01
RMM:   9    -0.126378237704E+03   -0.36870E-03   -0.32305E-04   930   0.506E-02    0.436E-01
RMM:  10    -0.126377633668E+03    0.60404E-03   -0.11712E-04   802   0.358E-02    0.513E-01
RMM:  11    -0.126376878796E+03    0.75487E-03   -0.64886E-05   757   0.264E-02    0.610E-01
RMM:  12    -0.126376121656E+03    0.75714E-03   -0.26344E-05   645   0.162E-02    0.600E-01
RMM:  13    -0.126375642269E+03    0.47939E-03   -0.23636E-05   624   0.131E-02    0.661E-01
RMM:  14    -0.126376110470E+03   -0.46820E-03   -0.79046E-06   476   0.978E-03    0.655E-01
RMM:  15    -0.126377599973E+03   -0.14895E-02   -0.11221E-04   751   0.246E-02    0.702E-01
RMM:  16    -0.126376351298E+03    0.12487E-02   -0.30315E-05   555   0.142E-02    0.678E-01
RMM:  17    -0.126374212040E+03    0.21393E-02   -0.18632E-04   716   0.268E-02    0.654E-01
RMM:  18    -0.126374161358E+03    0.50682E-04   -0.45563E-05   582   0.139E-02
   8 F= -.12637416E+03 E0= -.12635985E+03  d E =-.428898E+00  mag=    19.2401
       N       E                     dE             d eps       ncg     rms          rms(c)
DAV:   1    -0.126376306471E+03   -0.20944E-02   -0.63588E-03  1736   0.578E-01    0.836E-01
RMM:   2    -0.128210267304E+03   -0.18340E+01   -0.98257E-02  1347   0.544E-01    0.152E+01
RMM:   3    -0.126397299616E+03    0.18130E+01   -0.74070E-02  1368   0.583E-01    0.756E+00
RMM:   4    -0.126377332497E+03    0.19967E-01   -0.79274E-03  1305   0.309E-01    0.751E+00
RMM:   5    -0.126254773986E+03    0.12256E+00   -0.18713E-02  1304   0.294E-01    0.886E-01
RMM:   6    -0.126369101306E+03   -0.11433E+00   -0.95148E-03  1293   0.257E-01    0.182E+00
RMM:   7    -0.126381041313E+03   -0.11940E-01   -0.47342E-03  1174   0.158E-01    0.110E+00
RMM:   8    -0.126381175134E+03   -0.13382E-03   -0.21650E-04   848   0.559E-02    0.108E+00
RMM:   9    -0.126383279698E+03   -0.21046E-02   -0.27405E-04   949   0.471E-02    0.187E+00
RMM:  10    -0.126379858248E+03    0.34214E-02   -0.63370E-04  1055   0.703E-02    0.423E-01
RMM:  11    -0.126380579623E+03   -0.72137E-03   -0.60677E-04   986   0.751E-02    0.104E+00
RMM:  12    -0.126380440987E+03    0.13864E-03   -0.12683E-04   833   0.343E-02    0.766E-01
RMM:  13    -0.126379126743E+03    0.13142E-02   -0.14411E-04   850   0.313E-02    0.511E-01
RMM:  14    -0.126376952853E+03    0.21739E-02   -0.21605E-04   830   0.396E-02    0.437E-01
RMM:  15    -0.126376809223E+03    0.14363E-03   -0.48293E-05   751   0.205E-02    0.437E-01
RMM:  16    -0.126376866344E+03   -0.57120E-04   -0.24455E-05   657   0.138E-02
   9 F= -.12637687E+03 E0= -.12636221E+03  d E =-.431603E+00  mag=    19.2400
       N       E                     dE             d eps       ncg     rms          rms(c)
DAV:   1    -0.126376900870E+03   -0.91647E-04   -0.43518E-04  1576   0.156E-01    0.455E-01
RMM:   2    -0.126511615094E+03   -0.13471E+00   -0.13072E-02  1321   0.229E-01    0.942E+00
RMM:   3    -0.126513651048E+03   -0.20360E-02   -0.22142E-02  1245   0.293E-01    0.108E+01
RMM:   4    -0.126359590587E+03    0.15406E+00   -0.63231E-03  1245   0.184E-01    0.418E+00
RMM:   5    -0.126368613812E+03   -0.90232E-02   -0.21578E-02  1321   0.301E-01    0.501E-01
RMM:   6    -0.126377428059E+03   -0.88142E-02   -0.22558E-03  1201   0.163E-01    0.853E-01
RMM:   7    -0.126374440851E+03    0.29872E-02   -0.61858E-04   975   0.768E-02    0.732E-01
RMM:   8    -0.126374370678E+03    0.70173E-04   -0.78734E-05   801   0.387E-02
  10 F= -.12637437E+03 E0= -.12636058E+03  d E =-.429107E+00  mag=    19.2447
       N       E                     dE             d eps       ncg     rms          rms(c)
DAV:   1    -0.126373481878E+03    0.95897E-03   -0.81282E-04  1176   0.133E-01    0.532E-01
RMM:   2    -0.127008663943E+03   -0.63518E+00   -0.27040E-02  1324   0.321E-01    0.144E+01
RMM:   3    -0.126441516256E+03    0.56715E+00   -0.34008E-02  1325   0.395E-01    0.975E+00
RMM:   4    -0.126463159224E+03   -0.21643E-01   -0.84405E-04  1016   0.938E-02    0.101E+01
RMM:   5    -0.126321482676E+03    0.14168E+00   -0.11736E-02  1299   0.228E-01    0.125E+00
RMM:   6    -0.126377491281E+03   -0.56009E-01   -0.15559E-02  1315   0.318E-01    0.122E+00
RMM:   7    -0.126371693487E+03    0.57978E-02   -0.36646E-03  1203   0.157E-01    0.141E+00
RMM:   8    -0.126378652907E+03   -0.69594E-02   -0.13569E-03  1106   0.918E-02    0.218E+00
RMM:   9    -0.126371443978E+03    0.72089E-02   -0.30958E-03  1248   0.149E-01    0.105E+00
RMM:  10    -0.126371325760E+03    0.11822E-03   -0.19934E-03  1214   0.113E-01    0.164E+00
RMM:  11    -0.126376981705E+03   -0.56559E-02   -0.26409E-03  1196   0.136E-01    0.588E-01
RMM:  12    -0.126377794328E+03   -0.81262E-03   -0.35040E-04   950   0.630E-02    0.111E+00
RMM:  13    -0.126371082745E+03    0.67116E-02   -0.90874E-04   921   0.691E-02    0.845E-01
RMM:  14    -0.126366461915E+03    0.46208E-02   -0.13765E-03  1055   0.809E-02    0.586E-01
RMM:  15    -0.126368371547E+03   -0.19096E-02   -0.23613E-04   855   0.402E-02    0.625E-01
RMM:  16    -0.126370681532E+03   -0.23100E-02   -0.20305E-04   817   0.357E-02    0.825E-01
RMM:  17    -0.126371018831E+03   -0.33730E-03   -0.21994E-04   854   0.402E-02    0.670E-01
RMM:  18    -0.126369379247E+03    0.16396E-02   -0.67188E-05   700   0.227E-02    0.702E-01
RMM:  19    -0.126370290061E+03   -0.91081E-03   -0.12125E-05   504   0.111E-02    0.703E-01
RMM:  20    -0.126370797767E+03   -0.50771E-03   -0.14076E-05   539   0.104E-02    0.669E-01
RMM:  21    -0.126367536042E+03    0.32617E-02   -0.14843E-04   698   0.234E-02    0.647E-01
RMM:  22    -0.126367168816E+03    0.36723E-03   -0.14854E-05   580   0.127E-02    0.638E-01
RMM:  23    -0.126371374152E+03   -0.42053E-02   -0.45258E-04   804   0.382E-02    0.590E-01
RMM:  24    -0.126373826390E+03   -0.24522E-02   -0.33384E-04   778   0.349E-02    0.523E-01
RMM:  25    -0.126378553595E+03   -0.47272E-02   -0.13544E-03   846   0.610E-02    0.414E-01
RMM:  26    -0.126379630828E+03   -0.10772E-02   -0.59564E-04   787   0.395E-02    0.579E-01
RMM:  27    -0.126379421325E+03    0.20950E-03   -0.30387E-04   737   0.347E-02    0.626E-01
RMM:  28    -0.126369781062E+03    0.96403E-02   -0.20469E-03   905   0.806E-02    0.494E-01
RMM:  29    -0.126355424440E+03    0.14357E-01   -0.65941E-03   992   0.122E-01    0.784E-01
RMM:  30    -0.126365372294E+03   -0.99479E-02   -0.74827E-04   764   0.505E-02    0.701E-01
RMM:  31    -0.126359818504E+03    0.55538E-02   -0.41581E-04   735   0.355E-02    0.728E-01
RMM:  32    -0.126367655379E+03   -0.78369E-02   -0.65436E-04   765   0.436E-02    0.591E-01
RMM:  33    -0.126378735357E+03   -0.11080E-01   -0.36327E-03   954   0.100E-01    0.399E-01
RMM:  34    -0.126382292151E+03   -0.35568E-02   -0.20651E-03   936   0.750E-02    0.445E-01
RMM:  35    -0.126382445343E+03   -0.15319E-03   -0.33393E-04   708   0.368E-02    0.550E-01
RMM:  36    -0.126379979691E+03    0.24657E-02   -0.23717E-04   692   0.312E-02    0.577E-01
RMM:  37    -0.126379241470E+03    0.73822E-03   -0.63904E-05   598   0.165E-02    0.477E-01
RMM:  38    -0.126378846607E+03    0.39486E-03   -0.12007E-04   574   0.186E-02    0.597E-01
RMM:  39    -0.126376773434E+03    0.20732E-02   -0.54001E-04   704   0.356E-02    0.477E-01
RMM:  40    -0.126374452977E+03    0.23205E-02   -0.62748E-04   693   0.392E-02    0.570E-01
RMM:  41    -0.126373973223E+03    0.47975E-03   -0.19111E-04   606   0.239E-02    0.577E-01
RMM:  42    -0.126374676951E+03   -0.70373E-03   -0.19491E-05   480   0.119E-02    0.560E-01
RMM:  43    -0.126375978962E+03   -0.13020E-02   -0.52076E-05   509   0.145E-02    0.569E-01
RMM:  44    -0.126376439543E+03   -0.46058E-03   -0.11480E-05   373   0.905E-03    0.571E-01
RMM:  45    -0.126377396581E+03   -0.95704E-03   -0.43739E-05   527   0.139E-02    0.557E-01
RMM:  46    -0.126378278334E+03   -0.88175E-03   -0.55287E-05   529   0.143E-02    0.559E-01
RMM:  47    -0.126379210147E+03   -0.93181E-03   -0.87687E-05   670   0.185E-02    0.567E-01
RMM:  48    -0.126379041607E+03    0.16854E-03   -0.39974E-06   379   0.762E-03    0.567E-01
RMM:  49    -0.126379301008E+03   -0.25940E-03   -0.39884E-06   306   0.672E-03    0.575E-01
RMM:  50    -0.126380482403E+03   -0.11814E-02   -0.10479E-04   627   0.194E-02    0.630E-01
RMM:  51    -0.126381073490E+03   -0.59109E-03   -0.64796E-05   589   0.157E-02    0.592E-01
RMM:  52    -0.126381611497E+03   -0.53801E-03   -0.70575E-05   520   0.143E-02    0.600E-01
RMM:  53    -0.126382587243E+03   -0.97575E-03   -0.16703E-04   604   0.210E-02    0.646E-01
RMM:  54    -0.126383630719E+03   -0.10435E-02   -0.25706E-04   604   0.244E-02    0.745E-01
RMM:  55    -0.126381449610E+03    0.21811E-02   -0.17949E-04   630   0.274E-02    0.715E-01
RMM:  56    -0.126376733003E+03    0.47166E-02   -0.12362E-03   767   0.569E-02    0.691E-01
RMM:  57    -0.126375812017E+03    0.92099E-03   -0.85676E-04   693   0.445E-02    0.623E-01
RMM:  58    -0.126371228733E+03    0.45833E-02   -0.12631E-03   771   0.549E-02    0.750E-01
RMM:  59    -0.126371705464E+03   -0.47673E-03   -0.13398E-04   588   0.239E-02    0.752E-01
RMM:  60    -0.126371071842E+03    0.63362E-03   -0.50218E-05   501   0.142E-02    0.749E-01
RMM:  61    -0.126371565563E+03   -0.49372E-03   -0.65111E-06   407   0.913E-03    0.733E-01
RMM:  62    -0.126377320596E+03   -0.57550E-02   -0.10972E-03   752   0.540E-02    0.577E-01
RMM:  63    -0.126381370403E+03   -0.40498E-02   -0.20278E-03   828   0.691E-02    0.422E-01
RMM:  64    -0.126384009408E+03   -0.26390E-02   -0.20339E-03   841   0.687E-02    0.525E-01
RMM:  65    -0.126386356887E+03   -0.23475E-02   -0.14042E-03   783   0.595E-02    0.908E-01
RMM:  66    -0.126385585549E+03    0.77134E-03   -0.10830E-03   791   0.586E-02    0.132E+00
RMM:  67    -0.126380031421E+03    0.55541E-02   -0.12664E-03   786   0.584E-02    0.147E+00
RMM:  68    -0.126377618522E+03    0.24129E-02   -0.74912E-04   681   0.367E-02    0.130E+00
RMM:  69    -0.126377271879E+03    0.34664E-03   -0.75605E-05   483   0.149E-02    0.122E+00
RMM:  70    -0.126378212889E+03   -0.94101E-03   -0.33584E-05   488   0.115E-02    0.133E+00
RMM:  71    -0.126376405215E+03    0.18077E-02   -0.11637E-04   501   0.168E-02    0.118E+00
RMM:  72    -0.126374569470E+03    0.18357E-02   -0.20135E-04   561   0.220E-02    0.986E-01
RMM:  73    -0.126377339161E+03   -0.27697E-02   -0.60388E-04   628   0.324E-02    0.111E+00
RMM:  74    -0.126376301357E+03    0.10378E-02   -0.27486E-05   408   0.113E-02    0.103E+00
RMM:  75    -0.126375062281E+03    0.12391E-02   -0.10531E-04   514   0.168E-02    0.885E-01
RMM:  76    -0.126378498808E+03   -0.34365E-02   -0.19063E-04   603   0.237E-02    0.977E-01
RMM:  77    -0.126377468103E+03    0.10307E-02   -0.33994E-05   460   0.117E-02    0.874E-01
RMM:  78    -0.126377820116E+03   -0.35201E-03   -0.60178E-05   506   0.150E-02    0.803E-01
RMM:  79    -0.126377650538E+03    0.16958E-03   -0.11002E-04   586   0.182E-02    0.687E-01
RMM:  80    -0.126377683608E+03   -0.33070E-04   -0.21375E-04   649   0.244E-02
  11 F= -.12637768E+03 E0= -.12636150E+03  d E =-.432420E+00  mag=    19.2382
       N       E                     dE             d eps       ncg     rms          rms(c)
DAV:   1    -0.126378716588E+03   -0.10660E-02   -0.62845E-04  1160   0.424E-02    0.518E-01
RMM:   2    -0.126834053264E+03   -0.45534E+00   -0.36018E-02  1328   0.332E-01    0.104E+01
RMM:   3    -0.126387984394E+03    0.44607E+00   -0.21877E-02  1340   0.323E-01    0.362E+00
RMM:   4    -0.126389090045E+03   -0.11057E-02   -0.30917E-03  1285   0.152E-01    0.273E+00
RMM:   5    -0.126374567987E+03    0.14522E-01   -0.57130E-03  1326   0.182E-01    0.235E+00
RMM:   6    -0.126376638226E+03   -0.20702E-02   -0.62394E-03  1245   0.205E-01    0.950E-01
RMM:   7    -0.126393546777E+03   -0.16909E-01   -0.25834E-03  1265   0.138E-01    0.326E+00
RMM:   8    -0.126387790962E+03    0.57558E-02   -0.34149E-03  1162   0.150E-01    0.318E+00
RMM:   9    -0.126385725330E+03    0.20656E-02   -0.21338E-04   848   0.514E-02    0.299E+00
RMM:  10    -0.126380139721E+03    0.55856E-02   -0.74029E-03  1246   0.177E-01    0.142E+00
RMM:  11    -0.126387244446E+03   -0.71047E-02   -0.34502E-03  1129   0.122E-01    0.166E+00
RMM:  12    -0.126374622152E+03    0.12622E-01   -0.56062E-03  1041   0.132E-01    0.986E-01
RMM:  13    -0.126372539226E+03    0.20829E-02   -0.22861E-03  1059   0.936E-02    0.844E-01
RMM:  14    -0.126376169550E+03   -0.36303E-02   -0.44532E-04   875   0.505E-02    0.166E+00
RMM:  15    -0.126372136216E+03    0.40333E-02   -0.70757E-04   877   0.605E-02    0.668E-01
RMM:  16    -0.126376082300E+03   -0.39461E-02   -0.66330E-04   864   0.562E-02    0.730E-01
RMM:  17    -0.126378927195E+03   -0.28449E-02   -0.48529E-04   816   0.461E-02    0.536E-01
RMM:  18    -0.126378909100E+03    0.18095E-04   -0.16695E-04   775   0.302E-02
  12 F= -.12637891E+03 E0= -.12636374E+03  d E =-.433646E+00  mag=    19.2385
       N       E                     dE             d eps       ncg     rms          rms(c)
DAV:   1    -0.126379249517E+03   -0.32232E-03   -0.33603E-05  1056   0.296E-02    0.405E-01
RMM:   2    -0.126431866625E+03   -0.52617E-01   -0.82853E-03  1199   0.156E-01    0.387E+00
RMM:   3    -0.126389573221E+03    0.42293E-01   -0.40156E-03  1147   0.140E-01    0.228E+00
RMM:   4    -0.126456883006E+03   -0.67310E-01   -0.81438E-03  1293   0.197E-01    0.678E+00
RMM:   5    -0.126367394914E+03    0.89488E-01   -0.10460E-02  1304   0.259E-01    0.130E+00
RMM:   6    -0.126372448144E+03   -0.50532E-02   -0.40324E-03  1277   0.178E-01    0.159E+00
RMM:   7    -0.126371354984E+03    0.10932E-02   -0.77254E-04  1050   0.964E-02    0.134E+00
RMM:   8    -0.126372780717E+03   -0.14257E-02   -0.93882E-05   798   0.363E-02    0.141E+00
RMM:   9    -0.126377027092E+03   -0.42464E-02   -0.34117E-04   964   0.513E-02    0.222E+00
RMM:  10    -0.126382897968E+03   -0.58709E-02   -0.35346E-04   867   0.437E-02    0.292E+00
RMM:  11    -0.126382075702E+03    0.82227E-03   -0.73555E-04   847   0.462E-02    0.300E+00
RMM:  12    -0.126383415192E+03   -0.13395E-02   -0.68547E-05   751   0.214E-02    0.313E+00
RMM:  13    -0.126386099797E+03   -0.26846E-02   -0.19668E-04   858   0.374E-02    0.337E+00
RMM:  14    -0.126385597786E+03    0.50201E-03   -0.42977E-05   740   0.183E-02    0.338E+00
RMM:  15    -0.126388612430E+03   -0.30146E-02   -0.49083E-05   787   0.232E-02    0.351E+00
RMM:  16    -0.126391816799E+03   -0.32044E-02   -0.65753E-05   811   0.209E-02    0.362E+00
RMM:  17    -0.126390251531E+03    0.15653E-02   -0.93990E-06   606   0.114E-02    0.359E+00
RMM:  18    -0.126365915576E+03    0.24336E-01   -0.94255E-04  1106   0.767E-02    0.211E+00
RMM:  19    -0.126364729282E+03    0.11863E-02   -0.20869E-03  1047   0.871E-02    0.691E-01
RMM:  20    -0.126372141276E+03   -0.74120E-02   -0.10209E-03   997   0.809E-02    0.857E-01
RMM:  21    -0.126373302289E+03   -0.11610E-02   -0.11761E-04   821   0.387E-02    0.941E-01
RMM:  22    -0.126373457399E+03   -0.15511E-03   -0.14773E-05   710   0.162E-02    0.100E+00
RMM:  23    -0.126373306157E+03    0.15124E-03   -0.65856E-06   593   0.989E-03    0.101E+00
RMM:  24    -0.126371947315E+03    0.13588E-02   -0.27777E-05   575   0.122E-02    0.944E-01
RMM:  25    -0.126373184956E+03   -0.12376E-02   -0.15481E-05   468   0.989E-03    0.990E-01
RMM:  26    -0.126374627568E+03   -0.14426E-02   -0.76497E-05   673   0.182E-02    0.101E+00
RMM:  27    -0.126376919098E+03   -0.22915E-02   -0.23952E-04   751   0.287E-02    0.103E+00
RMM:  28    -0.126380611213E+03   -0.36921E-02   -0.14138E-03   854   0.622E-02    0.750E-01
RMM:  29    -0.126381129986E+03   -0.51877E-03   -0.43287E-04   741   0.371E-02    0.810E-01
RMM:  30    -0.126371240342E+03    0.98896E-02   -0.14314E-03   862   0.715E-02    0.488E-01
RMM:  31    -0.126370226234E+03    0.10141E-02   -0.14194E-03   851   0.609E-02    0.418E-01
RMM:  32    -0.126373137773E+03   -0.29115E-02   -0.71475E-04   814   0.491E-02    0.468E-01
RMM:  33    -0.126373785376E+03   -0.64760E-03   -0.18609E-04   680   0.261E-02    0.502E-01
RMM:  34    -0.126373943846E+03   -0.15847E-03   -0.37804E-05   550   0.142E-02    0.518E-01
RMM:  35    -0.126378677273E+03   -0.47334E-02   -0.78821E-04   793   0.490E-02    0.469E-01
RMM:  36    -0.126379883260E+03   -0.12060E-02   -0.35273E-04   717   0.315E-02    0.417E-01
RMM:  37    -0.126382367083E+03   -0.24838E-02   -0.95828E-04   808   0.496E-02    0.574E-01
RMM:  38    -0.126381227429E+03    0.11397E-02   -0.15184E-04   667   0.279E-02    0.626E-01
RMM:  39    -0.126379194194E+03    0.20332E-02   -0.15342E-04   644   0.256E-02    0.613E-01
RMM:  40    -0.126379791017E+03   -0.59682E-03   -0.17347E-05   539   0.119E-02    0.480E-01
RMM:  41    -0.126379679570E+03    0.11145E-03   -0.26002E-05   661   0.160E-02    0.484E-01
RMM:  42    -0.126379014817E+03    0.66475E-03   -0.43928E-05   660   0.156E-02    0.448E-01
RMM:  43    -0.126375229374E+03    0.37854E-02   -0.68157E-04   757   0.429E-02    0.381E-01
RMM:  44    -0.126374678847E+03    0.55053E-03   -0.47145E-04   693   0.331E-02    0.427E-01
RMM:  45    -0.126374319167E+03    0.35968E-03   -0.23636E-04   651   0.249E-02    0.493E-01
RMM:  46    -0.126372442157E+03    0.18770E-02   -0.29189E-04   690   0.280E-02    0.593E-01
RMM:  47    -0.126379333995E+03   -0.68918E-02   -0.12387E-03   808   0.617E-02    0.439E-01
RMM:  48    -0.126377809175E+03    0.15248E-02   -0.45744E-05   622   0.190E-02    0.464E-01
RMM:  49    -0.126378175695E+03   -0.36652E-03   -0.40672E-06   327   0.705E-03    0.469E-01
RMM:  50    -0.126378605963E+03   -0.43027E-03   -0.10468E-05   392   0.865E-03    0.490E-01
RMM:  51    -0.126379282894E+03   -0.67693E-03   -0.35496E-05   538   0.127E-02    0.429E-01
RMM:  52    -0.126379632380E+03   -0.34949E-03   -0.36101E-05   502   0.123E-02    0.456E-01
RMM:  53    -0.126380030646E+03   -0.39827E-03   -0.28694E-05   524   0.114E-02    0.404E-01
RMM:  54    -0.126379874961E+03    0.15569E-03   -0.10683E-05   457   0.942E-03    0.392E-01
RMM:  55    -0.126379733281E+03    0.14168E-03   -0.70413E-06   448   0.856E-03    0.393E-01
RMM:  56    -0.126379762288E+03   -0.29007E-04   -0.26796E-06   277   0.619E-03
  13 F= -.12637976E+03 E0= -.12636455E+03  d E =-.434499E+00  mag=    19.2401
       N       E                     dE             d eps       ncg     rms          rms(c)
DAV:   1    -0.126380125591E+03   -0.39231E-03   -0.36875E-05   964   0.139E-02    0.409E-01
RMM:   2    -0.126541140988E+03   -0.16102E+00   -0.13692E-02  1300   0.198E-01    0.562E+00
RMM:   3    -0.126392990391E+03    0.14815E+00   -0.93029E-03  1304   0.210E-01    0.296E+00
RMM:   4    -0.126375189831E+03    0.17801E-01   -0.43369E-03  1273   0.168E-01    0.277E+00
RMM:   5    -0.126385377120E+03   -0.10187E-01   -0.38463E-03  1217   0.141E-01    0.325E+00
RMM:   6    -0.126376618579E+03    0.87585E-02   -0.26181E-04   864   0.512E-02    0.285E+00
RMM:   7    -0.126381109376E+03   -0.44908E-02   -0.76911E-05   730   0.283E-02    0.291E+00
RMM:   8    -0.126382931373E+03   -0.18220E-02   -0.47885E-04   850   0.472E-02    0.274E+00
RMM:   9    -0.126382774405E+03    0.15697E-03   -0.99963E-03  1245   0.191E-01    0.115E+00
RMM:  10    -0.126375877132E+03    0.68973E-02   -0.25721E-03   992   0.106E-01    0.962E-01
RMM:  11    -0.126371742001E+03    0.41351E-02   -0.15764E-03  1080   0.890E-02    0.835E-01
RMM:  12    -0.126380176020E+03   -0.84340E-02   -0.15712E-03   936   0.825E-02    0.782E-01
RMM:  13    -0.126375852734E+03    0.43233E-02   -0.66037E-04   807   0.479E-02    0.534E-01
RMM:  14    -0.126377729834E+03   -0.18771E-02   -0.41562E-04   759   0.388E-02    0.621E-01
RMM:  15    -0.126378796951E+03   -0.10671E-02   -0.19283E-04   689   0.284E-02    0.586E-01
RMM:  16    -0.126378623705E+03    0.17325E-03   -0.57718E-05   586   0.168E-02    0.507E-01
RMM:  17    -0.126378437210E+03    0.18649E-03   -0.15957E-05   583   0.121E-02    0.568E-01
RMM:  18    -0.126378722364E+03   -0.28515E-03   -0.78069E-06   402   0.869E-03    0.576E-01
RMM:  19    -0.126378871139E+03   -0.14877E-03   -0.21714E-06   308   0.650E-03    0.577E-01
RMM:  20    -0.126379613970E+03   -0.74283E-03   -0.28070E-05   510   0.117E-02    0.563E-01
RMM:  21    -0.126381230997E+03   -0.16170E-02   -0.33792E-04   742   0.322E-02    0.536E-01
RMM:  22    -0.126382360855E+03   -0.11299E-02   -0.36182E-04   682   0.298E-02    0.457E-01
RMM:  23    -0.126383575782E+03   -0.12149E-02   -0.42170E-04   687   0.311E-02    0.616E-01
RMM:  24    -0.126380417762E+03    0.31580E-02   -0.39751E-04   711   0.389E-02    0.615E-01
RMM:  25    -0.126380106295E+03    0.31147E-03   -0.38724E-05   497   0.141E-02    0.483E-01
RMM:  26    -0.126378263145E+03    0.18432E-02   -0.20434E-04   638   0.248E-02    0.439E-01
RMM:  27    -0.126374203247E+03    0.40599E-02   -0.10072E-03   748   0.490E-02    0.450E-01
RMM:  28    -0.126377634012E+03   -0.34308E-02   -0.19342E-04   609   0.272E-02    0.488E-01
RMM:  29    -0.126376568800E+03    0.10652E-02   -0.83931E-05   511   0.165E-02    0.472E-01
RMM:  30    -0.126376271492E+03    0.29731E-03   -0.17890E-05   456   0.104E-02    0.489E-01
RMM:  31    -0.126376336460E+03   -0.64968E-04   -0.45714E-06   301   0.716E-03
  14 F= -.12637634E+03 E0= -.12636130E+03  d E =-.431073E+00  mag=    19.2382
       N       E                     dE             d eps       ncg     rms          rms(c)
DAV:   1    -0.126376608992E+03   -0.33750E-03   -0.24679E-05   988   0.130E-02    0.477E-01
RMM:   2    -0.126500714088E+03   -0.12411E+00   -0.12790E-02  1282   0.190E-01    0.506E+00
RMM:   3    -0.126400265892E+03    0.10045E+00   -0.73601E-03  1265   0.188E-01    0.339E+00
RMM:   4    -0.126388528370E+03    0.11738E-01   -0.18623E-03  1186   0.110E-01    0.328E+00
RMM:   5    -0.126424947887E+03   -0.36420E-01   -0.18371E-03  1229   0.100E-01    0.390E+00
RMM:   6    -0.126411683193E+03    0.13265E-01   -0.17847E-03  1202   0.115E-01    0.404E+00
RMM:   7    -0.126407767357E+03    0.39158E-02   -0.34914E-04   892   0.555E-02    0.388E+00
RMM:   8    -0.126385392367E+03    0.22375E-01   -0.12272E-02  1349   0.267E-01    0.305E+00
RMM:   9    -0.126371691241E+03    0.13701E-01   -0.82931E-03  1252   0.219E-01    0.295E+00
RMM:  10    -0.126374727891E+03   -0.30367E-02   -0.12056E-02  1304   0.221E-01    0.222E+00
RMM:  11    -0.126358655272E+03    0.16073E-01   -0.40914E-03  1170   0.157E-01    0.862E-01
RMM:  12    -0.126349603561E+03    0.90517E-02   -0.33224E-03  1031   0.108E-01    0.138E+00
RMM:  13    -0.126349928794E+03   -0.32523E-03   -0.43722E-04   804   0.475E-02    0.136E+00
RMM:  14    -0.126350395860E+03   -0.46707E-03   -0.56013E-05   662   0.190E-02    0.130E+00
RMM:  15    -0.126349863076E+03    0.53278E-03   -0.95919E-06   455   0.942E-03    0.128E+00
RMM:  16    -0.126359199487E+03   -0.93364E-02   -0.14118E-03   827   0.582E-02    0.168E+00
RMM:  17    -0.126376080076E+03   -0.16881E-01   -0.10356E-02  1072   0.158E-01    0.392E-01
RMM:  18    -0.126378844345E+03   -0.27643E-02   -0.40718E-04   865   0.527E-02    0.497E-01
RMM:  19    -0.126380580998E+03   -0.17367E-02   -0.23064E-04   804   0.392E-02    0.515E-01
RMM:  20    -0.126383169364E+03   -0.25884E-02   -0.12001E-03   796   0.568E-02    0.493E-01
RMM:  21    -0.126380491851E+03    0.26775E-02   -0.21884E-04   680   0.329E-02    0.522E-01
RMM:  22    -0.126379381616E+03    0.11102E-02   -0.45728E-05   539   0.163E-02    0.527E-01
RMM:  23    -0.126379445032E+03   -0.63416E-04   -0.75470E-06   590   0.111E-02
  15 F= -.12637945E+03 E0= -.12636379E+03  d E =-.434182E+00  mag=    19.2395
       N       E                     dE             d eps       ncg     rms          rms(c)
DAV:   1    -0.126380505022E+03   -0.11234E-02   -0.21385E-04  1084   0.263E-02    0.563E-01
RMM:   2    -0.126753464060E+03   -0.37296E+00   -0.20059E-02  1296   0.239E-01    0.135E+01
RMM:   3    -0.126471540387E+03    0.28192E+00   -0.22481E-02  1295   0.302E-01    0.990E+00
RMM:   4    -0.126274537848E+03    0.19700E+00   -0.16959E-02  1307   0.292E-01    0.139E+00
RMM:   5    -0.126382157737E+03   -0.10762E+00   -0.11675E-02  1294   0.301E-01    0.259E+00
RMM:   6    -0.126376274980E+03    0.58828E-02   -0.86919E-04  1086   0.915E-02    0.174E+00
RMM:   7    -0.126378052413E+03   -0.17774E-02   -0.36883E-04   937   0.524E-02    0.202E+00
RMM:   8    -0.126369438501E+03    0.86139E-02   -0.23003E-03  1232   0.119E-01    0.110E+00
RMM:   9    -0.126372977932E+03   -0.35394E-02   -0.27354E-03  1170   0.119E-01    0.157E+00
RMM:  10    -0.126378641228E+03   -0.56633E-02   -0.21286E-03  1166   0.114E-01    0.882E-01
RMM:  11    -0.126382383150E+03   -0.37419E-02   -0.97339E-04  1054   0.789E-02    0.155E+00
RMM:  12    -0.126382917587E+03   -0.53444E-03   -0.11851E-04   807   0.347E-02    0.152E+00
RMM:  13    -0.126383752326E+03   -0.83474E-03   -0.38353E-04   891   0.441E-02    0.134E+00
RMM:  14    -0.126382292119E+03    0.14602E-02   -0.29462E-04   879   0.393E-02    0.703E-01
RMM:  15    -0.126381277937E+03    0.10142E-02   -0.88278E-05   779   0.296E-02    0.577E-01
RMM:  16    -0.126381145645E+03    0.13229E-03   -0.11046E-05   616   0.135E-02    0.572E-01
RMM:  17    -0.126381197073E+03   -0.51428E-04   -0.34474E-06   490   0.847E-03
  16 F= -.12638120E+03 E0= -.12636507E+03  d E =-.435934E+00  mag=    19.2496
       N       E                     dE             d eps       ncg     rms          rms(c)
DAV:   1    -0.126381156493E+03   -0.10848E-04   -0.69615E-06   932   0.102E-02    0.561E-01
RMM:   2    -0.126758407542E+03   -0.37725E+00   -0.34282E-02  1325   0.331E-01    0.935E+00
RMM:   3    -0.126385997974E+03    0.37241E+00   -0.19496E-02  1335   0.300E-01    0.308E+00
RMM:   4    -0.126408386466E+03   -0.22388E-01   -0.12379E-03  1113   0.112E-01    0.318E+00
RMM:   5    -0.126409537870E+03   -0.11514E-02   -0.43129E-03  1290   0.137E-01    0.320E+00
RMM:   6    -0.126411255678E+03   -0.17178E-02   -0.24392E-03  1178   0.168E-01    0.450E+00
RMM:   7    -0.126406956263E+03    0.42994E-02   -0.34482E-03  1190   0.145E-01    0.525E+00
RMM:   8    -0.126357541792E+03    0.49414E-01   -0.95980E-03  1319   0.237E-01    0.108E+00
RMM:   9    -0.126374874141E+03   -0.17332E-01   -0.92334E-03  1265   0.206E-01    0.111E+00
RMM:  10    -0.126373019324E+03    0.18548E-02   -0.15716E-03  1129   0.125E-01    0.596E-01
RMM:  11    -0.126375422234E+03   -0.24029E-02   -0.54226E-04   985   0.626E-02    0.842E-01
RMM:  12    -0.126378859115E+03   -0.34369E-02   -0.54695E-04   906   0.649E-02    0.525E-01
RMM:  13    -0.126377738079E+03    0.11210E-02   -0.65499E-05   787   0.264E-02    0.410E-01
RMM:  14    -0.126377336659E+03    0.40142E-03   -0.22441E-05   639   0.149E-02    0.411E-01
RMM:  15    -0.126376548148E+03    0.78851E-03   -0.43728E-05   748   0.208E-02    0.475E-01
RMM:  16    -0.126374544275E+03    0.20039E-02   -0.43436E-04   902   0.497E-02    0.134E+00
RMM:  17    -0.126369973068E+03    0.45712E-02   -0.67060E-04   894   0.604E-02    0.170E+00
RMM:  18    -0.126373451601E+03   -0.34785E-02   -0.69033E-04   873   0.547E-02    0.139E+00
RMM:  19    -0.126381632873E+03   -0.81813E-02   -0.39061E-03  1131   0.121E-01    0.895E-01
RMM:  20    -0.126379014384E+03    0.26185E-02   -0.51268E-04   821   0.554E-02    0.937E-01
RMM:  21    -0.126381592075E+03   -0.25777E-02   -0.66320E-04   914   0.565E-02    0.102E+00
RMM:  22    -0.126374159123E+03    0.74330E-02   -0.11556E-03   889   0.634E-02    0.689E-01
RMM:  23    -0.126379886510E+03   -0.57274E-02   -0.76941E-04   831   0.499E-02    0.859E-01
RMM:  24    -0.126383589653E+03   -0.37031E-02   -0.54363E-04   856   0.459E-02    0.140E+00
RMM:  25    -0.126375873151E+03    0.77165E-02   -0.15000E-03   837   0.573E-02    0.102E+00
RMM:  26    -0.126379650302E+03   -0.37772E-02   -0.36742E-04   783   0.348E-02    0.124E+00
RMM:  27    -0.126377877060E+03    0.17732E-02   -0.66381E-04   687   0.346E-02    0.123E+00
RMM:  28    -0.126377563371E+03    0.31369E-03   -0.43347E-05   507   0.129E-02    0.122E+00
RMM:  29    -0.126377788964E+03   -0.22559E-03   -0.61728E-06   376   0.773E-03    0.124E+00
RMM:  30    -0.126377306658E+03    0.48231E-03   -0.17420E-05   379   0.835E-03    0.121E+00
RMM:  31    -0.126377444907E+03   -0.13825E-03   -0.11416E-05   309   0.704E-03    0.122E+00
RMM:  32    -0.126377504322E+03   -0.59414E-04   -0.63327E-07   223   0.511E-03
  17 F= -.12637750E+03 E0= -.12636051E+03  d E =-.432241E+00  mag=    19.2642
       N       E                     dE             d eps       ncg     rms          rms(c)
DAV:   1    -0.126375829348E+03    0.16156E-02   -0.64939E-04  1080   0.199E-02    0.111E+00
RMM:   2    -0.126725173991E+03   -0.34934E+00   -0.57692E-02  1308   0.401E-01    0.916E+00
RMM:   3    -0.126458606364E+03    0.26657E+00   -0.14616E-02  1327   0.269E-01    0.462E+00
RMM:   4    -0.126226507558E+03    0.23210E+00   -0.64079E-02  1313   0.504E-01    0.332E+00
RMM:   5    -0.126365142410E+03   -0.13863E+00   -0.20540E-02  1327   0.354E-01    0.262E+00
RMM:   6    -0.126381178473E+03   -0.16036E-01   -0.71090E-03  1254   0.186E-01    0.128E+00
RMM:   7    -0.126380103971E+03    0.10745E-02   -0.25102E-03  1242   0.153E-01    0.282E+00
RMM:   8    -0.126381086951E+03   -0.98298E-03   -0.17984E-03  1123   0.116E-01    0.172E+00
RMM:   9    -0.126379004518E+03    0.20824E-02   -0.31028E-04   928   0.538E-02    0.770E-01
RMM:  10    -0.126376720385E+03    0.22841E-02   -0.63171E-04   994   0.707E-02    0.691E-01
RMM:  11    -0.126375334391E+03    0.13860E-02   -0.33115E-04   877   0.539E-02    0.572E-01
RMM:  12    -0.126376839595E+03   -0.15052E-02   -0.24867E-04   806   0.416E-02    0.775E-01
RMM:  13    -0.126376037811E+03    0.80178E-03   -0.90443E-05   770   0.263E-02    0.608E-01
RMM:  14    -0.126373217999E+03    0.28198E-02   -0.46145E-04   788   0.402E-02    0.518E-01
RMM:  15    -0.126371805517E+03    0.14125E-02   -0.43153E-04   771   0.360E-02    0.521E-01
RMM:  16    -0.126377328634E+03   -0.55231E-02   -0.59928E-04   818   0.466E-02    0.455E-01
RMM:  17    -0.126378789659E+03   -0.14610E-02   -0.24636E-04   747   0.307E-02    0.423E-01
RMM:  18    -0.126380631099E+03   -0.18414E-02   -0.58565E-04   759   0.399E-02    0.421E-01
RMM:  19    -0.126370064106E+03    0.10567E-01   -0.31943E-03   951   0.962E-02    0.520E-01
RMM:  20    -0.126380040923E+03   -0.99768E-02   -0.24007E-03   896   0.861E-02    0.438E-01
RMM:  21    -0.126383411707E+03   -0.33708E-02   -0.20305E-03   865   0.720E-02    0.829E-01
RMM:  22    -0.126375482431E+03    0.79293E-02   -0.15133E-03   844   0.739E-02    0.768E-01
RMM:  23    -0.126371345712E+03    0.41367E-02   -0.11452E-03   795   0.556E-02    0.980E-01
RMM:  24    -0.126359524732E+03    0.11821E-01   -0.59862E-03   992   0.117E-01    0.726E-01
RMM:  25    -0.126349806300E+03    0.97184E-02   -0.34658E-03   895   0.872E-02    0.100E+00
RMM:  26    -0.126359204178E+03   -0.93979E-02   -0.93813E-04   759   0.542E-02    0.915E-01
RMM:  27    -0.126367339433E+03   -0.81353E-02   -0.12885E-03   803   0.576E-02    0.702E-01
RMM:  28    -0.126378693729E+03   -0.11354E-01   -0.44131E-03   980   0.107E-01    0.406E-01
RMM:  29    -0.126382476342E+03   -0.37826E-02   -0.24589E-03   901   0.798E-02    0.458E-01
RMM:  30    -0.126381982931E+03    0.49341E-03   -0.49330E-04   708   0.420E-02    0.587E-01
RMM:  31    -0.126380661501E+03    0.13214E-02   -0.25146E-04   724   0.331E-02    0.694E-01
RMM:  32    -0.126378172197E+03    0.24893E-02   -0.18401E-04   626   0.264E-02    0.700E-01
RMM:  33    -0.126372014203E+03    0.61580E-02   -0.98380E-04   751   0.516E-02    0.429E-01
RMM:  34    -0.126367951250E+03    0.40630E-02   -0.25883E-03   821   0.723E-02    0.431E-01
RMM:  35    -0.126370555149E+03   -0.26039E-02   -0.10190E-03   784   0.532E-02    0.624E-01
RMM:  36    -0.126371982450E+03   -0.14273E-02   -0.27596E-04   730   0.340E-02    0.644E-01
RMM:  37    -0.126372395424E+03   -0.41297E-03   -0.42633E-05   555   0.159E-02    0.637E-01
RMM:  38    -0.126371855947E+03    0.53948E-03   -0.23576E-05   524   0.118E-02    0.626E-01
RMM:  39    -0.126369103599E+03    0.27523E-02   -0.17481E-04   641   0.230E-02    0.678E-01
RMM:  40    -0.126367305093E+03    0.17985E-02   -0.99864E-05   558   0.178E-02    0.707E-01
RMM:  41    -0.126366752257E+03    0.55284E-03   -0.20262E-05   433   0.107E-02    0.721E-01
RMM:  42    -0.126368148665E+03   -0.13964E-02   -0.21758E-05   399   0.103E-02    0.705E-01
RMM:  43    -0.126370522736E+03   -0.23741E-02   -0.10744E-04   525   0.182E-02    0.668E-01
RMM:  44    -0.126375958255E+03   -0.54355E-02   -0.86193E-04   720   0.475E-02    0.567E-01
RMM:  45    -0.126378859893E+03   -0.29016E-02   -0.58685E-04   684   0.387E-02    0.498E-01
RMM:  46    -0.126379575526E+03   -0.71563E-03   -0.16420E-04   558   0.206E-02    0.454E-01
RMM:  47    -0.126380844564E+03   -0.12690E-02   -0.33098E-04   673   0.290E-02    0.441E-01
RMM:  48    -0.126379823042E+03    0.10215E-02   -0.51745E-05   513   0.171E-02    0.449E-01
RMM:  49    -0.126380017338E+03   -0.19430E-03   -0.44839E-06   303   0.707E-03    0.450E-01
RMM:  50    -0.126379908352E+03    0.10899E-03   -0.13272E-06   233   0.559E-03    0.451E-01
RMM:  51    -0.126379934178E+03   -0.25826E-04   -0.58760E-07   187   0.521E-03
  18 F= -.12637993E+03 E0= -.12636446E+03  d E =-.434671E+00  mag=    19.2403
       N       E                     dE             d eps       ncg     rms          rms(c)
DAV:   1    -0.126380301391E+03   -0.39304E-03   -0.29489E-05  1000   0.999E-03    0.454E-01
RMM:   2    -0.126708414611E+03   -0.32811E+00   -0.25909E-02  1321   0.280E-01    0.797E+00
RMM:   3    -0.126397673960E+03    0.31074E+00   -0.16272E-02  1334   0.277E-01    0.352E+00
RMM:   4    -0.126392834915E+03    0.48390E-02   -0.13732E-03  1135   0.103E-01    0.300E+00
RMM:   5    -0.126367680651E+03    0.25154E-01   -0.45206E-03  1305   0.164E-01    0.128E+00
RMM:   6    -0.126378353110E+03   -0.10672E-01   -0.33938E-03  1216   0.157E-01    0.191E+00
RMM:   7    -0.126388727834E+03   -0.10375E-01   -0.35052E-03  1251   0.155E-01    0.313E+00
RMM:   8    -0.126385958072E+03    0.27698E-02   -0.33653E-04   898   0.644E-02    0.312E+00
RMM:   9    -0.126385251112E+03    0.70696E-03   -0.21154E-03  1186   0.122E-01    0.293E+00
RMM:  10    -0.126388754629E+03   -0.35035E-02   -0.74668E-03  1291   0.180E-01    0.320E+00
RMM:  11    -0.126407380978E+03   -0.18626E-01   -0.42359E-03  1207   0.181E-01    0.494E+00
RMM:  12    -0.126350299836E+03    0.57081E-01   -0.15722E-02  1204   0.209E-01    0.187E+00
RMM:  13    -0.126374042871E+03   -0.23743E-01   -0.10983E-02  1207   0.183E-01    0.639E-01
RMM:  14    -0.126380754281E+03   -0.67114E-02   -0.83446E-04   964   0.862E-02    0.877E-01
RMM:  15    -0.126379867218E+03    0.88706E-03   -0.18480E-04   810   0.368E-02    0.514E-01
RMM:  16    -0.126379816767E+03    0.50451E-04   -0.50044E-05   771   0.264E-02
  19 F= -.12637982E+03 E0= -.12636473E+03  d E =-.434554E+00  mag=    19.2397
       N       E                     dE             d eps       ncg     rms          rms(c)
DAV:   1    -0.126379628022E+03    0.23920E-03   -0.20257E-04  1008   0.400E-02    0.432E-01
RMM:   2    -0.126600353931E+03   -0.22073E+00   -0.17701E-02  1307   0.231E-01    0.626E+00
RMM:   3    -0.126394223248E+03    0.20613E+00   -0.11716E-02  1309   0.235E-01    0.309E+00
RMM:   4    -0.126422045108E+03   -0.27822E-01   -0.33704E-03  1280   0.152E-01    0.369E+00
RMM:   5    -0.126374639506E+03    0.47406E-01   -0.38111E-03  1296   0.142E-01    0.238E+00
RMM:   6    -0.126387471429E+03   -0.12832E-01   -0.29357E-03  1219   0.144E-01    0.306E+00
RMM:   7    -0.126386667215E+03    0.80421E-03   -0.12214E-03  1074   0.990E-02    0.323E+00
RMM:   8    -0.126393062046E+03   -0.63948E-02   -0.37698E-04   870   0.506E-02    0.334E+00
RMM:   9    -0.126379557771E+03    0.13504E-01   -0.84676E-03  1307   0.206E-01    0.113E+00
RMM:  10    -0.126384813279E+03   -0.52555E-02   -0.18689E-03  1058   0.104E-01    0.146E+00
RMM:  11    -0.126363663599E+03    0.21150E-01   -0.81567E-03  1199   0.166E-01    0.858E-01
RMM:  12    -0.126377708981E+03   -0.14045E-01   -0.59406E-03  1029   0.124E-01    0.671E-01
RMM:  13    -0.126375882705E+03    0.18263E-02   -0.44063E-04   834   0.442E-02    0.561E-01
RMM:  14    -0.126377683095E+03   -0.18004E-02   -0.40876E-04   794   0.407E-02    0.485E-01
RMM:  15    -0.126377959674E+03   -0.27658E-03   -0.23273E-04   730   0.295E-02    0.397E-01
RMM:  16    -0.126379032704E+03   -0.10730E-02   -0.34224E-05   708   0.190E-02    0.492E-01
RMM:  17    -0.126378486013E+03    0.54669E-03   -0.86923E-05   629   0.193E-02    0.425E-01
RMM:  18    -0.126378341801E+03    0.14421E-03   -0.15316E-05   494   0.111E-02    0.427E-01
RMM:  19    -0.126378896129E+03   -0.55433E-03   -0.74567E-06   408   0.840E-03    0.418E-01
RMM:  20    -0.126380276247E+03   -0.13801E-02   -0.14746E-04   635   0.216E-02    0.423E-01
RMM:  21    -0.126381775488E+03   -0.14992E-02   -0.51194E-04   739   0.372E-02    0.411E-01
RMM:  22    -0.126381463304E+03    0.31218E-03   -0.90703E-05   555   0.188E-02    0.448E-01
RMM:  23    -0.126378030456E+03    0.34328E-02   -0.28733E-04   686   0.319E-02    0.406E-01
RMM:  24    -0.126372621281E+03    0.54092E-02   -0.14667E-03   793   0.600E-02    0.426E-01
RMM:  25    -0.126375959940E+03   -0.33387E-02   -0.18549E-04   609   0.271E-02    0.437E-01
RMM:  26    -0.126375822737E+03    0.13720E-03   -0.41886E-05   491   0.136E-02    0.456E-01
RMM:  27    -0.126379110622E+03   -0.32879E-02   -0.30271E-04   622   0.310E-02    0.429E-01
RMM:  28    -0.126381559621E+03   -0.24490E-02   -0.61456E-04   722   0.407E-02    0.502E-01
RMM:  29    -0.126382833980E+03   -0.12744E-02   -0.34927E-04   692   0.314E-02    0.561E-01
RMM:  30    -0.126379981216E+03    0.28528E-02   -0.33717E-04   673   0.355E-02    0.565E-01
RMM:  31    -0.126378392069E+03    0.15891E-02   -0.23038E-04   633   0.256E-02    0.426E-01
RMM:  32    -0.126376559105E+03    0.18330E-02   -0.29832E-04   656   0.298E-02    0.436E-01
RMM:  33    -0.126376837749E+03   -0.27864E-03   -0.59244E-05   533   0.163E-02    0.474E-01
RMM:  34    -0.126376972514E+03   -0.13477E-03   -0.27923E-05   453   0.117E-02    0.463E-01
RMM:  35    -0.126376635169E+03    0.33735E-03   -0.89253E-06   404   0.918E-03    0.467E-01
RMM:  36    -0.126377243828E+03   -0.60866E-03   -0.88582E-06   339   0.792E-03    0.457E-01
RMM:  37    -0.126378116164E+03   -0.87234E-03   -0.42326E-05   464   0.130E-02    0.444E-01
RMM:  38    -0.126379367505E+03   -0.12513E-02   -0.13004E-04   565   0.196E-02    0.412E-01
RMM:  39    -0.126380829669E+03   -0.14622E-02   -0.31798E-04   661   0.286E-02    0.391E-01
RMM:  40    -0.126381648946E+03   -0.81928E-03   -0.26195E-04   596   0.249E-02    0.416E-01
RMM:  41    -0.126381468747E+03    0.18020E-03   -0.95241E-05   574   0.186E-02    0.457E-01
RMM:  42    -0.126378690927E+03    0.27778E-02   -0.23609E-04   635   0.287E-02    0.441E-01
RMM:  43    -0.126376545407E+03    0.21455E-02   -0.29568E-04   611   0.287E-02    0.402E-01
RMM:  44    -0.126373386871E+03    0.31585E-02   -0.78249E-04   707   0.428E-02    0.439E-01
RMM:  45    -0.126370675411E+03    0.27115E-02   -0.69121E-04   672   0.398E-02    0.530E-01
RMM:  46    -0.126372129836E+03   -0.14544E-02   -0.67232E-05   536   0.187E-02    0.543E-01
RMM:  47    -0.126375093430E+03   -0.29636E-02   -0.15971E-04   601   0.233E-02    0.504E-01
RMM:  48    -0.126376617463E+03   -0.15240E-02   -0.10680E-04   518   0.193E-02    0.477E-01
RMM:  49    -0.126379456675E+03   -0.28392E-02   -0.42704E-04   665   0.351E-02    0.427E-01
RMM:  50    -0.126382473886E+03   -0.30172E-02   -0.12358E-03   756   0.550E-02    0.423E-01
RMM:  51    -0.126383854956E+03   -0.13811E-02   -0.64488E-04   646   0.378E-02    0.572E-01
RMM:  52    -0.126386701350E+03   -0.28464E-02   -0.11821E-03   731   0.490E-02    0.104E+00
RMM:  53    -0.126393817334E+03   -0.71160E-02   -0.26951E-03   887   0.781E-02    0.223E+00
RMM:  54    -0.126399725980E+03   -0.59086E-02   -0.61604E-03   994   0.123E-01    0.335E+00
RMM:  55    -0.126357976635E+03    0.41749E-01   -0.31147E-03   942   0.106E-01    0.248E+00
RMM:  56    -0.126431213655E+03   -0.73237E-01   -0.11875E-02  1026   0.168E-01    0.514E+00
RMM:  57    -0.126318230213E+03    0.11298E+00   -0.79037E-03  1050   0.172E-01    0.316E+00
RMM:  58    -0.126476190601E+03   -0.15796E+00   -0.32750E-02  1157   0.285E-01    0.559E+00
RMM:  59    -0.126481052004E+03   -0.48614E-02   -0.20133E-02  1124   0.215E-01    0.497E+00
RMM:  60    -0.126372672154E+03    0.10838E+00   -0.14437E-02  1071   0.207E-01    0.536E+00
RMM:  61    -0.126232386902E+03    0.14029E+00   -0.31637E-02  1108   0.259E-01    0.273E+00
RMM:  62    -0.126329613442E+03   -0.97227E-01   -0.68108E-03  1078   0.174E-01    0.340E+00
RMM:  63    -0.126300625078E+03    0.28988E-01   -0.53647E-03   968   0.106E-01    0.149E+00
RMM:  64    -0.126340258223E+03   -0.39633E-01   -0.60807E-03  1059   0.141E-01    0.639E-01
RMM:  65    -0.126357685583E+03   -0.17427E-01   -0.10240E-02  1074   0.160E-01    0.458E-01
RMM:  66    -0.126364737199E+03   -0.70516E-02   -0.56363E-03   947   0.115E-01    0.546E-01
RMM:  67    -0.126372490217E+03   -0.77530E-02   -0.66964E-04   765   0.493E-02    0.540E-01
RMM:  68    -0.126379367075E+03   -0.68769E-02   -0.13950E-03   815   0.663E-02    0.479E-01
RMM:  69    -0.126383255503E+03   -0.38884E-02   -0.26498E-03   898   0.850E-02    0.477E-01
RMM:  70    -0.126392257305E+03   -0.90018E-02   -0.83945E-03  1002   0.134E-01    0.187E+00
RMM:  71    -0.126393839410E+03   -0.15821E-02   -0.57442E-03   954   0.141E-01    0.287E+00
RMM:  72    -0.126389340113E+03    0.44993E-02   -0.50720E-03   964   0.114E-01    0.339E+00
RMM:  73    -0.126330898653E+03    0.58441E-01   -0.35284E-03   934   0.109E-01    0.169E+00
RMM:  74    -0.126351246618E+03   -0.20348E-01   -0.26599E-03   920   0.957E-02    0.976E-01
RMM:  75    -0.126369101600E+03   -0.17855E-01   -0.22902E-03   911   0.930E-02    0.643E-01
RMM:  76    -0.126375124729E+03   -0.60231E-02   -0.32704E-03   837   0.794E-02    0.699E-01
RMM:  77    -0.126373994915E+03    0.11298E-02   -0.44646E-04   688   0.363E-02    0.556E-01
RMM:  78    -0.126380591637E+03   -0.65967E-02   -0.46259E-04   720   0.424E-02    0.679E-01
RMM:  79    -0.126380404534E+03    0.18710E-03   -0.12150E-05   501   0.128E-02    0.681E-01
RMM:  80    -0.126381357412E+03   -0.95288E-03   -0.52577E-05   486   0.136E-02    0.743E-01
RMM:  81    -0.126380584885E+03    0.77253E-03   -0.46853E-05   414   0.131E-02    0.780E-01
RMM:  82    -0.126382969031E+03   -0.23841E-02   -0.33532E-04   631   0.287E-02    0.101E+00
RMM:  83    -0.126381423745E+03    0.15453E-02   -0.20247E-04   661   0.276E-02    0.118E+00
RMM:  84    -0.126379866350E+03    0.15574E-02   -0.19678E-04   665   0.273E-02    0.131E+00
RMM:  85    -0.126376424246E+03    0.34421E-02   -0.19753E-04   616   0.244E-02    0.126E+00
RMM:  86    -0.126370337760E+03    0.60865E-02   -0.64058E-04   668   0.388E-02    0.810E-01
RMM:  87    -0.126354625976E+03    0.15712E-01   -0.14295E-02  1025   0.168E-01    0.669E-01
RMM:  88    -0.126364241272E+03   -0.96153E-02   -0.44002E-03   878   0.971E-02    0.732E-01
RMM:  89    -0.126364631130E+03   -0.38986E-03   -0.45541E-04   707   0.377E-02    0.811E-01
RMM:  90    -0.126364426289E+03    0.20484E-03   -0.10928E-04   623   0.200E-02    0.835E-01
RMM:  91    -0.126357842359E+03    0.65839E-02   -0.59923E-04   684   0.385E-02    0.911E-01
RMM:  92    -0.126381642337E+03   -0.23800E-01   -0.17241E-02  1036   0.200E-01    0.445E-01
RMM:  93    -0.126385485480E+03   -0.38431E-02   -0.27130E-03   855   0.758E-02    0.870E-01
RMM:  94    -0.126393391663E+03   -0.79062E-02   -0.38979E-03   903   0.956E-02    0.196E+00
RMM:  95    -0.126390177446E+03    0.32142E-02   -0.36681E-03   943   0.112E-01    0.297E+00
RMM:  96    -0.126371160168E+03    0.19017E-01   -0.52155E-03   924   0.103E-01    0.244E+00
RMM:  97    -0.126343223812E+03    0.27936E-01   -0.32914E-03   870   0.881E-02    0.782E-01
RMM:  98    -0.126374475525E+03   -0.31252E-01   -0.50410E-03   929   0.114E-01    0.124E+00
RMM:  99    -0.126368864866E+03    0.56107E-02   -0.72302E-04   753   0.467E-02    0.813E-01
RMM: 100    -0.126380986805E+03   -0.12122E-01   -0.14368E-03   778   0.616E-02
  20 F= -.12638099E+03 E0= -.12636328E+03  d E =-.435724E+00  mag=    19.2310
       N       E                     dE             d eps       ncg     rms          rms(c)
DAV:   1    -0.126377498311E+03   -0.86334E-02   -0.33970E-04  1120   0.246E-02    0.102E+00
RMM:   2    -0.127633882526E+03   -0.12564E+01   -0.11827E-01  1336   0.596E-01    0.120E+01
RMM:   3    -0.126399692801E+03    0.12342E+01   -0.71220E-02  1377   0.538E-01    0.297E+00
RMM:   4    -0.126342138398E+03    0.57554E-01   -0.29646E-02  1326   0.409E-01    0.337E+00
RMM:   5    -0.126368804409E+03   -0.26666E-01   -0.17164E-02  1334   0.322E-01    0.151E+00
RMM:   6    -0.126390605038E+03   -0.21801E-01   -0.71796E-03  1288   0.194E-01    0.383E+00
RMM:   7    -0.126394922657E+03   -0.43176E-02   -0.31800E-03  1190   0.182E-01    0.321E+00
RMM:   8    -0.126379439221E+03    0.15483E-01   -0.19777E-03  1229   0.115E-01    0.108E+00
RMM:   9    -0.126376812877E+03    0.26263E-02   -0.20838E-03  1189   0.138E-01    0.106E+00
RMM:  10    -0.126373017446E+03    0.37954E-02   -0.67502E-04   965   0.794E-02    0.117E+00
RMM:  11    -0.126376968647E+03   -0.39512E-02   -0.26366E-04   835   0.417E-02    0.137E+00
RMM:  12    -0.126372638972E+03    0.43297E-02   -0.30282E-04   798   0.363E-02    0.132E+00
RMM:  13    -0.126372898387E+03   -0.25941E-03   -0.21794E-05   592   0.136E-02    0.139E+00
RMM:  14    -0.126381975307E+03   -0.90769E-02   -0.21668E-03   944   0.838E-02    0.171E+00
RMM:  15    -0.126392508264E+03   -0.10533E-01   -0.53695E-03  1055   0.118E-01    0.196E+00
RMM:  16    -0.126369542774E+03    0.22965E-01   -0.10070E-02  1037   0.162E-01    0.200E+00
RMM:  17    -0.126370129431E+03   -0.58666E-03   -0.21543E-03   920   0.789E-02    0.208E+00
RMM:  18    -0.126361140829E+03    0.89886E-02   -0.23491E-03   950   0.777E-02    0.161E+00
RMM:  19    -0.126344450842E+03    0.16690E-01   -0.51990E-03  1027   0.112E-01    0.129E+00
RMM:  20    -0.126332832144E+03    0.11619E-01   -0.28165E-03   935   0.847E-02    0.143E+00
RMM:  21    -0.126355726581E+03   -0.22894E-01   -0.56974E-03   971   0.116E-01    0.137E+00
RMM:  22    -0.126363236697E+03   -0.75101E-02   -0.17117E-03   869   0.683E-02    0.763E-01
RMM:  23    -0.126380012719E+03   -0.16776E-01   -0.69285E-03  1031   0.137E-01    0.497E-01
RMM:  24    -0.126383610142E+03   -0.35974E-02   -0.22107E-03   893   0.763E-02    0.583E-01
RMM:  25    -0.126385889538E+03   -0.22794E-02   -0.14552E-03   779   0.569E-02    0.865E-01
RMM:  26    -0.126382068242E+03    0.38213E-02   -0.94149E-04   796   0.584E-02    0.108E+00
RMM:  27    -0.126377282613E+03    0.47856E-02   -0.74276E-04   752   0.465E-02    0.101E+00
RMM:  28    -0.126377094805E+03    0.18781E-03   -0.29460E-05   589   0.154E-02    0.106E+00
RMM:  29    -0.126377453769E+03   -0.35896E-03   -0.35443E-05   681   0.154E-02    0.121E+00
RMM:  30    -0.126373489269E+03    0.39645E-02   -0.30271E-04   740   0.295E-02    0.990E-01
RMM:  31    -0.126373566008E+03   -0.76739E-04   -0.33744E-04   674   0.281E-02
  21 F= -.12637357E+03 E0= -.12635664E+03  d E =-.428303E+00  mag=    19.2288
       N       E                     dE             d eps       ncg     rms          rms(c)
DAV:   1    -0.126372348288E+03    0.11410E-02   -0.70804E-01  1648   0.613E+00    0.188E+00
RMM:   2    -0.131115869209E+03   -0.47435E+01   -0.59916E-01  1452   0.160E+00    0.170E+01
RMM:   3    -0.126907939465E+03    0.42079E+01   -0.32284E-01  1409   0.120E+00    0.110E+01
RMM:   4    -0.126614152257E+03    0.29379E+00   -0.59398E-02  1405   0.699E-01    0.871E+00
RMM:   5    -0.126656512571E+03   -0.42360E-01   -0.11629E-02  1346   0.304E-01    0.108E+01
RMM:   6    -0.126274576911E+03    0.38194E+00   -0.55723E-02  1388   0.543E-01    0.278E+00
RMM:   7    -0.126388477630E+03   -0.11390E+00   -0.17524E-02  1369   0.408E-01    0.457E+00
RMM:   8    -0.126385778260E+03    0.26994E-02   -0.82013E-03  1315   0.237E-01    0.449E+00
RMM:   9    -0.126383628241E+03    0.21500E-02   -0.95566E-03  1288   0.213E-01    0.145E+00
RMM:  10    -0.126391215072E+03   -0.75868E-02   -0.42808E-03  1300   0.173E-01    0.324E+00
RMM:  11    -0.126387187389E+03    0.40277E-02   -0.15479E-03  1157   0.119E-01    0.200E+00
RMM:  12    -0.126383716995E+03    0.34704E-02   -0.53194E-04  1006   0.655E-02    0.700E-01
RMM:  13    -0.126382157632E+03    0.15594E-02   -0.38691E-04   889   0.598E-02    0.927E-01
RMM:  14    -0.126381865120E+03    0.29251E-03   -0.42145E-04   915   0.539E-02    0.681E-01
RMM:  15    -0.126381803883E+03    0.61237E-04   -0.19950E-04   820   0.420E-02
  22 F= -.12638180E+03 E0= -.12636636E+03  d E =-.436541E+00  mag=    19.2253
       N       E                     dE             d eps       ncg     rms          rms(c)
DAV:   1    -0.126378050715E+03    0.38144E-02   -0.15485E-01  1904   0.371E+00    0.110E+00
RMM:   2    -0.128243099201E+03   -0.18650E+01   -0.25807E-01  1428   0.101E+00    0.126E+01
RMM:   3    -0.126368548003E+03    0.18746E+01   -0.14050E-01  1399   0.757E-01    0.397E+00
RMM:   4    -0.126440516599E+03   -0.71969E-01   -0.14794E-02  1358   0.368E-01    0.413E+00
RMM:   5    -0.126396426909E+03    0.44090E-01   -0.68120E-03  1328   0.224E-01    0.301E+00
RMM:   6    -0.126397309911E+03   -0.88300E-03   -0.33653E-04  1097   0.707E-02    0.300E+00
RMM:   7    -0.126392808851E+03    0.45011E-02   -0.38980E-03  1329   0.171E-01    0.257E+00
RMM:   8    -0.126353135907E+03    0.39673E-01   -0.74928E-03  1297   0.220E-01    0.126E+00
RMM:   9    -0.126409012194E+03   -0.55876E-01   -0.10195E-02  1271   0.217E-01    0.526E+00
RMM:  10    -0.126389406273E+03    0.19606E-01   -0.33071E-03  1262   0.179E-01    0.243E+00
RMM:  11    -0.126385291548E+03    0.41147E-02   -0.79609E-04  1126   0.968E-02    0.115E+00
RMM:  12    -0.126385143279E+03    0.14827E-03   -0.67007E-04  1035   0.734E-02    0.577E-01
RMM:  13    -0.126382672753E+03    0.24705E-02   -0.56531E-04   925   0.729E-02    0.584E-01
RMM:  14    -0.126382775200E+03   -0.10245E-03   -0.10040E-04   828   0.304E-02    0.461E-01
RMM:  15    -0.126380858983E+03    0.19162E-02   -0.10950E-04   812   0.264E-02    0.453E-01
RMM:  16    -0.126381296248E+03   -0.43727E-03   -0.85800E-06   548   0.106E-02    0.454E-01
RMM:  17    -0.126380788488E+03    0.50776E-03   -0.13388E-05   632   0.112E-02    0.492E-01
RMM:  18    -0.126383046929E+03   -0.22584E-02   -0.22710E-04   809   0.327E-02    0.449E-01
RMM:  19    -0.126386435453E+03   -0.33885E-02   -0.10351E-03   876   0.664E-02    0.496E-01
RMM:  20    -0.126387491320E+03   -0.10559E-02   -0.38010E-04   819   0.382E-02    0.707E-01
RMM:  21    -0.126380126017E+03    0.73653E-02   -0.79570E-04   862   0.583E-02    0.456E-01
RMM:  22    -0.126380185138E+03   -0.59121E-04   -0.27318E-04   799   0.338E-02
  23 F= -.12638019E+03 E0= -.12636555E+03  d E =0.161874E-02  mag=    19.2173
       N       E                     dE             d eps       ncg     rms          rms(c)
DAV:   1    -0.126372000958E+03    0.81251E-02   -0.18909E-02  1824   0.107E+00    0.510E-01
RMM:   2    -0.126551354748E+03   -0.17935E+00   -0.22657E-02  1410   0.315E-01    0.581E+00
RMM:   3    -0.126400410928E+03    0.15094E+00   -0.92789E-03  1306   0.221E-01    0.339E+00
RMM:   4    -0.126404410903E+03   -0.40000E-02   -0.29616E-04   901   0.635E-02    0.342E+00
RMM:   5    -0.126402206387E+03    0.22045E-02   -0.61651E-04  1079   0.678E-02    0.354E+00
RMM:   6    -0.126447839816E+03   -0.45633E-01   -0.19729E-03  1232   0.981E-02    0.426E+00
RMM:   7    -0.126444539052E+03    0.33008E-02   -0.14586E-04   842   0.505E-02    0.427E+00
RMM:   8    -0.126393349206E+03    0.51190E-01   -0.10985E-02  1342   0.264E-01    0.225E+00
RMM:   9    -0.126349320239E+03    0.44029E-01   -0.16821E-02  1271   0.251E-01    0.246E+00
RMM:  10    -0.126366772443E+03   -0.17452E-01   -0.49142E-03  1311   0.175E-01    0.278E+00
RMM:  11    -0.126351232393E+03    0.15540E-01   -0.16326E-02  1298   0.279E-01    0.230E+00
RMM:  12    -0.126348471407E+03    0.27610E-02   -0.35479E-03  1050   0.130E-01    0.200E+00
RMM:  13    -0.126359648856E+03   -0.11177E-01   -0.12571E-03  1179   0.100E-01    0.335E+00
RMM:  14    -0.126372337975E+03   -0.12689E-01   -0.15866E-02  1239   0.214E-01    0.234E+00
RMM:  15    -0.126381756327E+03   -0.94184E-02   -0.64534E-03  1184   0.149E-01    0.143E+00
RMM:  16    -0.126388825322E+03   -0.70690E-02   -0.17131E-03  1073   0.121E-01    0.977E-01
RMM:  17    -0.126392712977E+03   -0.38877E-02   -0.15449E-03   881   0.664E-02    0.139E+00
RMM:  18    -0.126363670874E+03    0.29042E-01   -0.91976E-03  1032   0.154E-01    0.560E-01
RMM:  19    -0.126372107695E+03   -0.84368E-02   -0.35133E-03   988   0.106E-01    0.460E-01
RMM:  20    -0.126377125181E+03   -0.50175E-02   -0.49013E-04   793   0.468E-02    0.479E-01
RMM:  21    -0.126377455842E+03   -0.33066E-03   -0.12558E-04   683   0.249E-02    0.584E-01
RMM:  22    -0.126377119429E+03    0.33641E-03   -0.16724E-05   580   0.127E-02    0.580E-01
RMM:  23    -0.126373966716E+03    0.31527E-02   -0.23178E-04   679   0.260E-02    0.620E-01
RMM:  24    -0.126375448636E+03   -0.14819E-02   -0.18629E-05   447   0.108E-02    0.613E-01
RMM:  25    -0.126376363015E+03   -0.91438E-03   -0.18640E-05   433   0.993E-03    0.598E-01
RMM:  26    -0.126379099251E+03   -0.27362E-02   -0.20116E-04   644   0.246E-02    0.536E-01
RMM:  27    -0.126384795817E+03   -0.56966E-02   -0.13614E-03   820   0.605E-02    0.458E-01
RMM:  28    -0.126387728413E+03   -0.29326E-02   -0.12678E-03   786   0.530E-02    0.510E-01
RMM:  29    -0.126383958888E+03    0.37695E-02   -0.36903E-04   693   0.382E-02    0.546E-01
RMM:  30    -0.126383483551E+03    0.47534E-03   -0.15896E-05   464   0.114E-02    0.558E-01
RMM:  31    -0.126383372650E+03    0.11090E-03   -0.29120E-06   323   0.676E-03    0.549E-01
RMM:  32    -0.126382799845E+03    0.57281E-03   -0.39990E-05   589   0.134E-02    0.719E-01
RMM:  33    -0.126382805447E+03   -0.56025E-05   -0.81400E-06   567   0.112E-02
  24 F= -.12638281E+03 E0= -.12636855E+03  d E =-.100156E-02  mag=    19.2251
       N       E                     dE             d eps       ncg     rms          rms(c)
[...]
RMM:  41    -0.126385011052E+03    0.51282E-02   -0.89622E-04   703   0.450E-02    0.536E-01
RMM:  42    -0.126386347034E+03   -0.13360E-02   -0.91181E-05   528   0.182E-02    0.562E-01
RMM:  43    -0.126387720976E+03   -0.13739E-02   -0.22169E-05   422   0.107E-02    0.555E-01
RMM:  44    -0.126390129844E+03   -0.24089E-02   -0.16088E-04   569   0.218E-02    0.516E-01
RMM:  45    -0.126393607653E+03   -0.34778E-02   -0.57530E-04   668   0.387E-02    0.492E-01
RMM:  46    -0.126396175397E+03   -0.25677E-02   -0.79758E-04   713   0.416E-02    0.591E-01
RMM:  47    -0.126397579835E+03   -0.14044E-02   -0.58087E-04   643   0.365E-02    0.886E-01
RMM:  48    -0.126396023667E+03    0.15562E-02   -0.51640E-04   731   0.419E-02    0.115E+00
RMM:  49    -0.126391941858E+03    0.40818E-02   -0.66467E-04   735   0.448E-02    0.122E+00
RMM:  50    -0.126389207245E+03    0.27346E-02   -0.25946E-04   600   0.271E-02    0.116E+00
RMM:  51    -0.126387520559E+03    0.16867E-02   -0.61039E-05   492   0.154E-02    0.101E+00
RMM:  52    -0.126394489138E+03   -0.69686E-02   -0.66692E-04   674   0.378E-02    0.151E+00
RMM:  53    -0.126381049963E+03    0.13439E-01   -0.54516E-03   887   0.988E-02    0.624E-01
RMM:  54    -0.126401738222E+03   -0.20688E-01   -0.85593E-03   921   0.129E-01    0.148E+00
RMM:  55    -0.126381580345E+03    0.20158E-01   -0.73062E-03   909   0.120E-01    0.572E-01
RMM:  56    -0.126400378555E+03   -0.18798E-01   -0.73117E-03   899   0.116E-01    0.150E+00
RMM:  57    -0.126385101596E+03    0.15277E-01   -0.34672E-03   849   0.876E-02    0.807E-01
RMM:  58    -0.126390342362E+03   -0.52408E-02   -0.11030E-03   728   0.459E-02    0.102E+00
RMM:  59    -0.126380873326E+03    0.94690E-02   -0.19460E-03   775   0.643E-02    0.475E-01
RMM:  60    -0.126382376412E+03   -0.15031E-02   -0.21411E-03   847   0.720E-02    0.484E-01
RMM:  61    -0.126385247241E+03   -0.28708E-02   -0.66282E-04   710   0.450E-02    0.565E-01
RMM:  62    -0.126383616430E+03    0.16308E-02   -0.36040E-04   636   0.291E-02    0.635E-01
RMM:  63    -0.126383599270E+03    0.17160E-04   -0.71521E-05   549   0.169E-02
  45 F= -.12638360E+03 E0= -.12636857E+03  d E =0.582056E-02  mag=    19.2435
       N       E                     dE             d eps       ncg     rms          rms(c)
DAV:   1    -0.126387267902E+03   -0.36515E-02   -0.38726E-04  1160   0.288E-02    0.612E-01
RMM:   2    -0.126836060860E+03   -0.44879E+00   -0.38586E-02  1327   0.337E-01    0.104E+01
RMM:   3    -0.126406072145E+03    0.42999E+00   -0.19457E-02  1342   0.312E-01    0.398E+00
RMM:   4    -0.126397923355E+03    0.81488E-02   -0.47225E-03  1315   0.182E-01    0.297E+00
RMM:   5    -0.126401471114E+03   -0.35478E-02   -0.72167E-04  1074   0.930E-02    0.279E+00
RMM:   6    -0.126403910941E+03   -0.24398E-02   -0.47910E-03  1277   0.171E-01    0.309E+00
RMM:   7    -0.126394886972E+03    0.90240E-02   -0.86203E-03  1292   0.198E-01    0.420E+00
RMM:   8    -0.126408062296E+03   -0.13175E-01   -0.93686E-03  1244   0.207E-01    0.379E+00
RMM:   9    -0.126394609793E+03    0.13453E-01   -0.89132E-04   995   0.846E-02    0.215E+00
RMM:  10    -0.126403493268E+03   -0.88835E-02   -0.10687E-03  1131   0.932E-02    0.296E+00
RMM:  11    -0.126405897639E+03   -0.24044E-02   -0.11586E-04   807   0.331E-02    0.327E+00
RMM:  12    -0.126397154902E+03    0.87427E-02   -0.80959E-04  1030   0.690E-02    0.220E+00
RMM:  13    -0.126391530894E+03    0.56240E-02   -0.94713E-04  1122   0.829E-02    0.858E-01
RMM:  14    -0.126389142415E+03    0.23885E-02   -0.84849E-04  1058   0.838E-02    0.582E-01
RMM:  15    -0.126388360762E+03    0.78165E-03   -0.24841E-04   841   0.489E-02    0.105E+00
RMM:  16    -0.126389757865E+03   -0.13971E-02   -0.11315E-04   780   0.276E-02    0.961E-01
RMM:  17    -0.126389573828E+03    0.18404E-03   -0.12724E-05   581   0.123E-02    0.956E-01
RMM:  18    -0.126389550825E+03    0.23003E-04   -0.45112E-06   432   0.787E-03
  46 F= -.12638955E+03 E0= -.12637397E+03  d E =-.130994E-03  mag=    19.2476
       N       E                     dE             d eps       ncg     rms          rms(c)
DAV:   1    -0.126388896550E+03    0.67728E-03   -0.31857E-05   984   0.143E-02    0.957E-01
RMM:   2    -0.128155613093E+03   -0.17667E+01   -0.16717E-01  1368   0.711E-01    0.124E+01
RMM:   3    -0.126402138931E+03    0.17535E+01   -0.10831E-01  1378   0.652E-01    0.453E+00
RMM:   4    -0.126434395240E+03   -0.32256E-01   -0.89022E-03  1356   0.291E-01    0.388E+00
RMM:   5    -0.126401172333E+03    0.33223E-01   -0.38047E-03  1298   0.143E-01    0.290E+00
RMM:   6    -0.126402374108E+03   -0.12018E-02   -0.76020E-04  1091   0.903E-02    0.302E+00
RMM:   7    -0.126388339352E+03    0.14035E-01   -0.86516E-03  1300   0.207E-01    0.292E+00
RMM:   8    -0.126386525726E+03    0.18136E-02   -0.70970E-03  1295   0.194E-01    0.344E+00
RMM:   9    -0.126390809995E+03   -0.42843E-02   -0.77024E-04  1058   0.835E-02    0.332E+00
RMM:  10    -0.126391862204E+03   -0.10522E-02   -0.11148E-02  1294   0.228E-01    0.192E+00
RMM:  11    -0.126469817249E+03   -0.77955E-01   -0.13942E-02  1292   0.228E-01    0.908E+00
RMM:  12    -0.126430749026E+03    0.39068E-01   -0.15798E-02  1207   0.256E-01    0.859E+00
RMM:  13    -0.126367177889E+03    0.63571E-01   -0.12642E-03  1017   0.887E-02    0.404E+00
RMM:  14    -0.126385794391E+03   -0.18617E-01   -0.40679E-03  1082   0.116E-01    0.371E+00
RMM:  15    -0.126366990876E+03    0.18804E-01   -0.35620E-03   955   0.935E-02    0.156E+00
RMM:  16    -0.126379509667E+03   -0.12519E-01   -0.23050E-03  1128   0.111E-01    0.161E+00
RMM:  17    -0.126383178261E+03   -0.36686E-02   -0.49082E-03  1048   0.113E-01    0.703E-01
RMM:  18    -0.126394596943E+03   -0.11419E-01   -0.12492E-03   961   0.820E-02    0.132E+00
RMM:  19    -0.126384941990E+03    0.96550E-02   -0.80847E-04   842   0.588E-02    0.708E-01
RMM:  20    -0.126387628303E+03   -0.26863E-02   -0.43758E-04   837   0.446E-02    0.897E-01
RMM:  21    -0.126389014271E+03   -0.13860E-02   -0.50945E-04   803   0.436E-02    0.811E-01
RMM:  22    -0.126389022065E+03   -0.77942E-05   -0.67377E-04   802   0.459E-02
  47 F= -.12638902E+03 E0= -.12637366E+03  d E =0.397767E-03  mag=    19.2368
       N       E                     dE             d eps       ncg     rms          rms(c)
DAV:   1    -0.126389481938E+03   -0.46767E-03   -0.35439E-04  1136   0.382E-02    0.588E-01
RMM:   2    -0.126856338776E+03   -0.46686E+00   -0.40144E-02  1329   0.352E-01    0.106E+01
RMM:   3    -0.126390481751E+03    0.46586E+00   -0.22605E-02  1342   0.330E-01    0.370E+00
RMM:   4    -0.126397038363E+03   -0.65566E-02   -0.57756E-03  1322   0.200E-01    0.239E+00
RMM:   5    -0.126417334418E+03   -0.20296E-01   -0.43437E-03  1277   0.188E-01    0.355E+00
RMM:   6    -0.126392341312E+03    0.24993E-01   -0.25508E-03  1224   0.154E-01    0.209E+00
RMM:   7    -0.126370095013E+03    0.22246E-01   -0.67119E-03  1269   0.178E-01    0.885E-01
RMM:   8    -0.126389502239E+03   -0.19407E-01   -0.73741E-03  1316   0.209E-01    0.282E+00
RMM:   9    -0.126388035726E+03    0.14665E-02   -0.21922E-03  1062   0.121E-01    0.276E+00
RMM:  10    -0.126401882496E+03   -0.13847E-01   -0.40554E-04   978   0.647E-02    0.345E+00
RMM:  11    -0.126396551317E+03    0.53312E-02   -0.21870E-04   821   0.424E-02    0.340E+00
RMM:  12    -0.126396506422E+03    0.44895E-04   -0.15278E-05   708   0.171E-02
  48 F= -.12639651E+03 E0= -.12639037E+03  d E =-.708659E-02  mag=    19.2303
       N       E                     dE             d eps       ncg     rms          rms(c)
DAV:   1    -0.126380624922E+03    0.15926E-01   -0.17306E-02  1560   0.442E-01    0.242E+00
RMM:   2    -0.136097194469E+03   -0.97166E+01   -0.11253E+00  1407   0.175E+00    0.215E+01
RMM:   3    -0.127877478008E+03    0.82197E+01   -0.69623E-01  1407   0.175E+00    0.154E+01
RMM:   4    -0.127019706898E+03    0.85777E+00   -0.20396E-01  1406   0.110E+00    0.141E+01
RMM:   5    -0.126636133044E+03    0.38357E+00   -0.29793E-02  1431   0.523E-01    0.106E+01
RMM:   6    -0.126378510489E+03    0.25762E+00   -0.51474E-02  1338   0.494E-01    0.112E+01
RMM:   7    -0.126415787205E+03   -0.37277E-01   -0.19775E-02  1307   0.349E-01    0.107E+01
RMM:   8    -0.126338177093E+03    0.77610E-01   -0.10764E-02  1322   0.269E-01    0.225E+00
RMM:   9    -0.126427307675E+03   -0.89131E-01   -0.30251E-02  1382   0.440E-01    0.679E+00
RMM:  10    -0.126414080227E+03    0.13227E-01   -0.10323E-02  1319   0.281E-01    0.509E+00
RMM:  11    -0.126395021086E+03    0.19059E-01   -0.29780E-03  1218   0.168E-01    0.329E+00
RMM:  12    -0.126393729657E+03    0.12914E-02   -0.22431E-03  1149   0.121E-01    0.265E+00
RMM:  13    -0.126398327565E+03   -0.45979E-02   -0.84875E-04  1038   0.783E-02    0.311E+00
RMM:  14    -0.126388822470E+03    0.95051E-02   -0.10937E-03  1094   0.880E-02    0.232E+00
RMM:  15    -0.126384984005E+03    0.38385E-02   -0.88372E-04  1019   0.730E-02    0.184E+00
RMM:  16    -0.126392912200E+03   -0.79282E-02   -0.15501E-03  1114   0.993E-02    0.324E+00
RMM:  17    -0.126391599234E+03    0.13130E-02   -0.59551E-04   886   0.556E-02    0.336E+00
RMM:  18    -0.126390832335E+03    0.76690E-03   -0.14029E-04   728   0.289E-02    0.333E+00
RMM:  19    -0.126393086370E+03   -0.22540E-02   -0.17434E-03  1111   0.980E-02    0.298E+00
RMM:  20    -0.126392451107E+03    0.63526E-03   -0.73760E-03  1206   0.182E-01    0.315E+00
RMM:  21    -0.126374549369E+03    0.17902E-01   -0.46904E-03  1213   0.160E-01    0.139E+00
RMM:  22    -0.126381703715E+03   -0.71543E-02   -0.17317E-03  1137   0.112E-01    0.138E+00
RMM:  23    -0.126374377965E+03    0.73257E-02   -0.33429E-03  1180   0.144E-01    0.613E-01
RMM:  24    -0.126377619377E+03   -0.32414E-02   -0.23519E-04   865   0.483E-02    0.635E-01
RMM:  25    -0.126376387580E+03    0.12318E-02   -0.12204E-04   812   0.281E-02    0.661E-01
RMM:  26    -0.126375847156E+03    0.54042E-03   -0.38904E-05   688   0.179E-02    0.689E-01
RMM:  27    -0.126380888873E+03   -0.50417E-02   -0.26550E-04   793   0.324E-02    0.623E-01
RMM:  28    -0.126393197039E+03   -0.12308E-01   -0.39925E-03  1115   0.120E-01    0.444E-01
RMM:  29    -0.126398011275E+03   -0.48142E-02   -0.32852E-03  1050   0.101E-01    0.706E-01
RMM:  30    -0.126376308171E+03    0.21703E-01   -0.79640E-03  1088   0.159E-01    0.493E-01
RMM:  31    -0.126374227021E+03    0.20812E-02   -0.24676E-03   894   0.815E-02    0.685E-01
RMM:  32    -0.126371085778E+03    0.31412E-02   -0.85549E-04   787   0.478E-02    0.799E-01
RMM:  33    -0.126378672062E+03   -0.75863E-02   -0.39056E-04   725   0.383E-02    0.708E-01
RMM:  34    -0.126382584022E+03   -0.39120E-02   -0.34107E-04   670   0.318E-02    0.636E-01
RMM:  35    -0.126384252249E+03   -0.16682E-02   -0.14109E-04   656   0.223E-02    0.586E-01
RMM:  36    -0.126389774241E+03   -0.55220E-02   -0.90587E-04   823   0.525E-02    0.492E-01
RMM:  37    -0.126392880705E+03   -0.31065E-02   -0.62285E-04   794   0.433E-02    0.457E-01
RMM:  38    -0.126394439162E+03   -0.15585E-02   -0.41338E-04   712   0.336E-02    0.487E-01
RMM:  39    -0.126394197101E+03    0.24206E-03   -0.12818E-04   630   0.229E-02    0.541E-01
RMM:  40    -0.126390697911E+03    0.34992E-02   -0.24710E-04   645   0.294E-02    0.472E-01
RMM:  41    -0.126387419637E+03    0.32783E-02   -0.48874E-04   689   0.359E-02    0.434E-01
RMM:  42    -0.126382114306E+03    0.53053E-02   -0.12884E-03   769   0.524E-02    0.538E-01
RMM:  43    -0.126376269081E+03    0.58452E-02   -0.11392E-03   749   0.491E-02    0.678E-01
RMM:  44    -0.126378008902E+03   -0.17398E-02   -0.55857E-05   555   0.185E-02    0.683E-01
RMM:  45    -0.126377799570E+03    0.20933E-03   -0.17125E-05   418   0.992E-03    0.694E-01
RMM:  46    -0.126377936100E+03   -0.13653E-03   -0.25352E-06   308   0.677E-03    0.694E-01
RMM:  47    -0.126377926358E+03    0.97420E-05   -0.25573E-05   665   0.133E-02
  49 F= -.12637793E+03 E0= -.12636298E+03  d E =0.114935E-01  mag=    19.2435
       N       E                     dE             d eps       ncg     rms          rms(c)
DAV:   1    -0.126378829045E+03   -0.89294E-03   -0.19839E-05  1000   0.139E-02    0.723E-01
RMM:   2    -0.126790506709E+03   -0.41168E+00   -0.41475E-02  1327   0.342E-01    0.981E+00
RMM:   3    -0.126420437456E+03    0.37007E+00   -0.15779E-02  1337   0.286E-01    0.430E+00
RMM:   4    -0.126401288052E+03    0.19149E-01   -0.61255E-03  1328   0.199E-01    0.301E+00
RMM:   5    -0.126405506855E+03   -0.42188E-02   -0.94985E-04  1091   0.116E-01    0.297E+00
RMM:   6    -0.126416518123E+03   -0.11011E-01   -0.50720E-03  1309   0.183E-01    0.352E+00
RMM:   7    -0.126383722891E+03    0.32795E-01   -0.11353E-02  1310   0.226E-01    0.300E+00
RMM:   8    -0.126403687845E+03   -0.19965E-01   -0.10476E-02  1281   0.222E-01    0.309E+00
RMM:   9    -0.126392351678E+03    0.11336E-01   -0.11345E-03  1076   0.966E-02    0.117E+00
RMM:  10    -0.126403044807E+03   -0.10693E-01   -0.16667E-03  1194   0.118E-01    0.282E+00
RMM:  11    -0.126405869738E+03   -0.28249E-02   -0.21047E-04   844   0.471E-02    0.328E+00
RMM:  12    -0.126405315357E+03    0.55438E-03   -0.60512E-04   892   0.582E-02    0.334E+00
RMM:  13    -0.126392149419E+03    0.13166E-01   -0.18443E-03  1156   0.993E-02    0.188E+00
RMM:  14    -0.126379678183E+03    0.12471E-01   -0.37485E-03  1222   0.139E-01    0.797E-01
RMM:  15    -0.126369000243E+03    0.10678E-01   -0.20479E-03  1035   0.110E-01    0.102E+00
RMM:  16    -0.126375426738E+03   -0.64265E-02   -0.21718E-04   808   0.367E-02    0.104E+00
RMM:  17    -0.126378282839E+03   -0.28561E-02   -0.22643E-04   816   0.316E-02    0.806E-01
RMM:  18    -0.126383848592E+03   -0.55658E-02   -0.12930E-03   905   0.671E-02    0.616E-01
RMM:  19    -0.126389256782E+03   -0.54082E-02   -0.98234E-04   797   0.524E-02    0.539E-01
RMM:  20    -0.126393731300E+03   -0.44745E-02   -0.11351E-03   861   0.609E-02    0.520E-01
RMM:  21    -0.126393075453E+03    0.65585E-03   -0.73446E-05   656   0.229E-02    0.515E-01
RMM:  22    -0.126387484524E+03    0.55909E-02   -0.76896E-04   828   0.503E-02    0.514E-01
RMM:  23    -0.126383172907E+03    0.43116E-02   -0.49712E-04   840   0.425E-02    0.596E-01
RMM:  24    -0.126384152766E+03   -0.97986E-03   -0.12322E-05   559   0.120E-02    0.588E-01
RMM:  25    -0.126385046000E+03   -0.89323E-03   -0.17079E-05   476   0.100E-02    0.523E-01
RMM:  26    -0.126387502394E+03   -0.24564E-02   -0.11553E-04   621   0.208E-02    0.492E-01
RMM:  27    -0.126393271958E+03   -0.57696E-02   -0.11727E-03   819   0.571E-02    0.481E-01
RMM:  28    -0.126394128388E+03   -0.85643E-03   -0.22162E-04   685   0.252E-02    0.510E-01
RMM:  29    -0.126385751133E+03    0.83773E-02   -0.18291E-03   831   0.706E-02    0.519E-01
RMM:  30    -0.126380403934E+03    0.53472E-02   -0.12686E-03   756   0.519E-02    0.631E-01
RMM:  31    -0.126386814284E+03   -0.64103E-02   -0.44801E-04   698   0.381E-02    0.598E-01
RMM:  32    -0.126387999975E+03   -0.11857E-02   -0.57056E-05   676   0.179E-02    0.585E-01
RMM:  33    -0.126392339636E+03   -0.43397E-02   -0.71726E-04   773   0.444E-02    0.483E-01
RMM:  34    -0.126396964797E+03   -0.46252E-02   -0.26290E-03   908   0.798E-02    0.569E-01
RMM:  35    -0.126400529027E+03   -0.35642E-02   -0.15797E-03   776   0.593E-02    0.113E+00
RMM:  36    -0.126393276952E+03    0.72521E-02   -0.15376E-03   810   0.695E-02    0.126E+00
RMM:  37    -0.126389023892E+03    0.42531E-02   -0.61019E-04   712   0.379E-02    0.111E+00
RMM:  38    -0.126387483256E+03    0.15406E-02   -0.60496E-05   536   0.158E-02    0.999E-01
RMM:  39    -0.126389729983E+03   -0.22467E-02   -0.17907E-04   641   0.200E-02    0.109E+00
RMM:  40    -0.126387455907E+03    0.22741E-02   -0.81021E-05   491   0.151E-02    0.967E-01
RMM:  41    -0.126390468770E+03   -0.30129E-02   -0.16146E-04   605   0.208E-02    0.101E+00
RMM:  42    -0.126390174695E+03    0.29408E-03   -0.49318E-06   320   0.693E-03    0.102E+00
RMM:  43    -0.126389958547E+03    0.21615E-03   -0.59255E-06   335   0.713E-03    0.968E-01
RMM:  44    -0.126387627985E+03    0.23306E-02   -0.11194E-04   596   0.179E-02    0.729E-01
RMM:  45    -0.126388846874E+03   -0.12189E-02   -0.16938E-04   672   0.244E-02    0.645E-01
RMM:  46    -0.126391665657E+03   -0.28188E-02   -0.14273E-04   604   0.220E-02    0.639E-01
RMM:  47    -0.126389668808E+03    0.19968E-02   -0.13535E-04   591   0.194E-02    0.531E-01
RMM:  48    -0.126390017385E+03   -0.34858E-03   -0.13156E-04   610   0.201E-02    0.483E-01
RMM:  49    -0.126390404676E+03   -0.38729E-03   -0.11342E-04   593   0.190E-02    0.471E-01
RMM:  50    -0.126391087526E+03   -0.68285E-03   -0.60317E-05   526   0.153E-02    0.475E-01
RMM:  51    -0.126391841442E+03   -0.75392E-03   -0.18102E-05   412   0.105E-02    0.482E-01
RMM:  52    -0.126392279535E+03   -0.43809E-03   -0.48633E-06   342   0.748E-03    0.492E-01
RMM:  53    -0.126392292572E+03   -0.13037E-04   -0.76125E-07   204   0.526E-03
  50 F= -.12639229E+03 E0= -.12637696E+03  d E =-.287274E-02  mag=    19.2436
       N       E                     dE             d eps       ncg     rms          rms(c)
DAV:   1    -0.126390508942E+03    0.17706E-02   -0.61645E-01  1632   0.346E+00    0.254E+00
RMM:   2    -0.134381802260E+03   -0.79913E+01   -0.79250E-01  1397   0.157E+00    0.257E+01
RMM:   3    -0.126153633613E+03    0.82282E+01   -0.62056E-01  1405   0.180E+00    0.712E+00
RMM:   4    -0.126521872662E+03   -0.36824E+00   -0.24661E-01  1391   0.124E+00    0.515E+00
RMM:   5    -0.126381561948E+03    0.14031E+00   -0.47419E-02  1408   0.557E-01    0.338E+00
RMM:   6    -0.126409233329E+03   -0.27671E-01   -0.19842E-02  1339   0.349E-01    0.323E+00
RMM:   7    -0.126406080289E+03    0.31530E-02   -0.19229E-03  1182   0.128E-01    0.304E+00
RMM:   8    -0.126373617140E+03    0.32463E-01   -0.38857E-03  1262   0.140E-01    0.200E+00
RMM:   9    -0.126370614304E+03    0.30028E-02   -0.39765E-03  1263   0.148E-01    0.188E+00
RMM:  10    -0.126359350042E+03    0.11264E-01   -0.60396E-03  1279   0.183E-01    0.296E+00
RMM:  11    -0.126377791478E+03   -0.18441E-01   -0.57365E-03  1244   0.165E-01    0.242E+00
RMM:  12    -0.126398877995E+03   -0.21087E-01   -0.17496E-02  1332   0.300E-01    0.265E+00
RMM:  13    -0.126387954443E+03    0.10924E-01   -0.64190E-03  1152   0.168E-01    0.266E+00
RMM:  14    -0.126383612088E+03    0.43424E-02   -0.21733E-03  1074   0.103E-01    0.319E+00
RMM:  15    -0.126361588952E+03    0.22023E-01   -0.13706E-02  1296   0.243E-01    0.105E+00
RMM:  16    -0.126371980323E+03   -0.10391E-01   -0.59212E-03  1136   0.150E-01    0.664E-01
RMM:  17    -0.126364466402E+03    0.75139E-02   -0.22172E-03  1012   0.935E-02    0.726E-01
RMM:  18    -0.126346224167E+03    0.18242E-01   -0.44668E-03  1100   0.119E-01    0.121E+00
RMM:  19    -0.126354071618E+03   -0.78475E-02   -0.49519E-04   838   0.538E-02    0.114E+00
RMM:  20    -0.126368896339E+03   -0.14825E-01   -0.27312E-03   958   0.870E-02    0.886E-01
RMM:  21    -0.126390437169E+03   -0.21541E-01   -0.94713E-03  1144   0.167E-01    0.493E-01
RMM:  22    -0.126393866058E+03   -0.34289E-02   -0.17589E-03   923   0.782E-02    0.685E-01
RMM:  23    -0.126394361946E+03   -0.49589E-03   -0.80858E-04   844   0.544E-02    0.113E+00
RMM:  24    -0.126381239343E+03    0.13123E-01   -0.22602E-03   887   0.815E-02    0.604E-01
RMM:  25    -0.126386079457E+03   -0.48401E-02   -0.59185E-04   766   0.441E-02    0.728E-01
RMM:  26    -0.126383361838E+03    0.27176E-02   -0.63048E-04   785   0.413E-02    0.471E-01
RMM:  27    -0.126385632691E+03   -0.22709E-02   -0.40917E-04   744   0.378E-02    0.437E-01
RMM:  28    -0.126386808233E+03   -0.11755E-02   -0.12245E-04   697   0.233E-02    0.437E-01
RMM:  29    -0.126386863733E+03   -0.55501E-04   -0.30854E-05   521   0.132E-02
  51 F= -.12638686E+03 E0= -.12637190E+03  d E =0.255610E-02  mag=    19.2343
