<?xml version="1.0" encoding="ISO-8859-1"?>
<modeling>
 <generator>
  <i name="program" type="string">vasp </i>
  <i name="version" type="string">5.4.1  </i>
  <i name="subversion" type="string">24Jun15 (build Jan 06 2016 13:10:00) complex                          parallel </i>
  <i name="platform" type="string">IFC91_ompi </i>
  <i name="date" type="string">2016 03 22 </i>
  <i name="time" type="string">16:26:41 </i>
 </generator>
 <incar>
  <i type="string" name="PREC">normal</i>
  <i type="string" name="ALGO"> Fast</i>
  <i type="int" name="ISPIN">     2</i>
  <i type="int" name="ICHARG">     1</i>
  <i type="int" name="NELM">   100</i>
  <i type="int" name="IBRION">     2</i>
  <i name="EDIFF">      0.00010000</i>
  <i name="EDIFFG">     -0.01000000</i>
  <i type="int" name="NSW">    99</i>
  <i type="int" name="ISIF">     0</i>
  <i name="ENCUT">    300.00000000</i>
  <i type="string" name="LREAL"> Auto</i>
  <i type="int" name="ISMEAR">     0</i>
  <i name="SIGMA">      0.05000000</i>
  <i type="int" name="LMAXMIX">     4</i>
  <i type="logical" name="LWAVE"> F  </i>
  <i type="logical" name="LVTOT"> T  </i>
  <v type="int" name="KPOINT_BSE">    -1     0     0     0</v>
  <i type="int" name="NELM">   100</i>
  <i type="logical" name="LDAU"> T  </i>
  <v type="int" name="LDAUTYPE">     2</v>
  <v type="int" name="LDAUL">     0     2     0</v>
  <v name="LDAUU">      0.00000000      5.30000000      0.00000000</v>
  <v name="LDAUJ">      0.00000000      0.00000000      0.00000000</v>
  <i type="int" name="LDAUPRINT">     1</i>
  <i type="logical" name="LDIPOL"> T  </i>
  <i type="int" name="IDIPOL">     3</i>
 </incar>
 <kpoints>
  <generation param="Monkhorst-Pack">
   <v type="int" name="divisions">       4        4        1 </v>
   <v name="usershift">      0.00000000       0.00000000       0.00000000 </v>
   <v name="genvec1">      0.25000000       0.00000000       0.00000000 </v>
   <v name="genvec2">      0.00000000       0.25000000       0.00000000 </v>
   <v name="genvec3">      0.00000000       0.00000000       1.00000000 </v>
   <v name="shift">      0.50000000       0.50000000       0.00000000 </v>
  </generation>
  <varray name="kpointlist" >
   <v>       0.12500000       0.12500000       0.00000000 </v>
   <v>       0.37500000       0.12500000       0.00000000 </v>
   <v>       0.37500000       0.37500000       0.00000000 </v>
  </varray>
  <varray name="weights" >
   <v>       0.25000000 </v>
   <v>       0.50000000 </v>
   <v>       0.25000000 </v>
  </varray>
 </kpoints>
 <parameters>
  <separator name="general" >
   <i type="string" name="SYSTEM">unknown system</i>
   <i type="logical" name="LCOMPAT"> F  </i>
  </separator>
  <separator name="electronic" >
   <i type="string" name="PREC">normal</i>
   <i name="ENMAX">    300.00000000</i>
   <i name="ENAUG">    578.34200000</i>
   <i name="EDIFF">      0.00010000</i>
   <i type="int" name="IALGO">    68</i>
   <i type="int" name="IWAVPR">    11</i>
   <i type="int" name="NBANDS">   116</i>
   <i name="NELECT">    174.00000000</i>
   <i type="int" name="TURBO">     0</i>
   <i type="int" name="IRESTART">     0</i>
   <i type="int" name="NREBOOT">     0</i>
   <i type="int" name="NMIN">     0</i>
   <i name="EREF">      0.00000000</i>
   <separator name="electronic smearing" >
    <i type="int" name="ISMEAR">     0</i>
    <i name="SIGMA">      0.05000000</i>
    <i name="KSPACING">      0.50000000</i>
    <i type="logical" name="KGAMMA"> T  </i>
   </separator>
   <separator name="electronic projectors" >
    <i type="logical" name="LREAL"> T  </i>
    <v name="ROPT">     -0.00050000     -0.00050000     -0.00050000</v>
    <i type="int" name="LMAXPAW">  -100</i>
    <i type="int" name="LMAXMIX">     4</i>
    <i type="logical" name="NLSPLINE"> F  </i>
   </separator>
   <separator name="electronic startup" >
    <i type="int" name="ISTART">     0</i>
    <i type="int" name="ICHARG">     1</i>
    <i type="int" name="INIWAV">     1</i>
   </separator>
   <separator name="electronic spin" >
    <i type="int" name="ISPIN">     2</i>
    <i type="logical" name="LNONCOLLINEAR"> F  </i>
    <v name="MAGMOM">      1.00000000      1.00000000      1.00000000      1.00000000      1.00000000      1.00000000      1.00000000      1.00000000      1.00000000      1.00000000      1.00000000      1.00000000      1.00000000      1.00000000      1.00000000      1.00000000      1.00000000      1.00000000      1.00000000      1.00000000
      1.00000000</v>
    <i name="NUPDOWN">     -1.00000000</i>
    <i type="logical" name="LSORBIT"> F  </i>
    <v name="SAXIS">      0.00000000      0.00000000      1.00000000</v>
    <i type="logical" name="LSPIRAL"> F  </i>
    <v name="QSPIRAL">      0.00000000      0.00000000      0.00000000</v>
    <i type="logical" name="LZEROZ"> F  </i>
   </separator>
   <separator name="electronic exchange-correlation" >
    <i type="logical" name="LASPH"> F  </i>
    <i type="logical" name="LMETAGGA"> F  </i>
   </separator>
   <separator name="electronic convergence" >
    <i type="int" name="NELM">   100</i>
    <i type="int" name="NELMDL">    -5</i>
    <i type="int" name="NELMIN">     2</i>
    <i name="ENINI">    300.00000000</i>
    <separator name="electronic convergence detail" >
     <i type="logical" name="LDIAG"> T  </i>
     <i type="logical" name="LSUBROT"> F  </i>
     <i name="WEIMIN">      0.00100000</i>
     <i name="EBREAK">      0.00000022</i>
     <i name="DEPER">      0.30000000</i>
     <i type="int" name="NRMM">     4</i>
     <i name="TIME">      0.40000000</i>
    </separator>
   </separator>
   <separator name="electronic mixer" >
    <i name="AMIX">      0.40000000</i>
    <i name="BMIX">      1.00000000</i>
    <i name="AMIN">      0.10000000</i>
    <i name="AMIX_MAG">      1.60000000</i>
    <i name="BMIX_MAG">      1.00000000</i>
    <separator name="electronic mixer details" >
     <i type="int" name="IMIX">     4</i>
     <i type="logical" name="MIXFIRST"> F  </i>
     <i type="int" name="MAXMIX">   -45</i>
     <i name="WC">    100.00000000</i>
     <i type="int" name="INIMIX">     1</i>
     <i type="int" name="MIXPRE">     1</i>
     <i type="int" name="MREMOVE">     5</i>
    </separator>
   </separator>
   <separator name="electronic dipolcorrection" >
    <i type="logical" name="LDIPOL"> T  </i>
    <i type="logical" name="LMONO"> F  </i>
    <i type="int" name="IDIPOL">     3</i>
    <i name="EPSILON">      1.00000000</i>
    <v name="DIPOL">   -100.00000000   -100.00000000   -100.00000000</v>
    <i name="EFIELD">      0.00000000</i>
   </separator>
  </separator>
  <separator name="grids" >
   <i type="int" name="NGX">    16</i>
   <i type="int" name="NGY">    16</i>
   <i type="int" name="NGZ">   140</i>
   <i type="int" name="NGXF">    32</i>
   <i type="int" name="NGYF">    32</i>
   <i type="int" name="NGZF">   280</i>
   <i type="logical" name="ADDGRID"> F  </i>
  </separator>
  <separator name="ionic" >
   <i type="int" name="NSW">    99</i>
   <i type="int" name="IBRION">     2</i>
   <i type="int" name="ISIF">     0</i>
   <i name="PSTRESS">      0.00000000</i>
   <i name="EDIFFG">     -0.01000000</i>
   <i type="int" name="NFREE">     1</i>
   <i name="POTIM">      0.50000000</i>
   <i name="SMASS">     -3.00000000</i>
   <i name="SCALEE">      1.00000000</i>
  </separator>
  <separator name="ionic md" >
   <i name="TEBEG">      0.00010000</i>
   <i name="TEEND">      0.00010000</i>
   <i type="int" name="NBLOCK">     1</i>
   <i type="int" name="KBLOCK">    99</i>
   <i type="int" name="NPACO">   256</i>
   <i name="APACO">     16.00000000</i>
  </separator>
  <separator name="symmetry" >
   <i type="int" name="ISYM">     2</i>
   <i name="SYMPREC">      0.00001000</i>
  </separator>
  <separator name="dos" >
   <i type="logical" name="LORBIT"> F  </i>
   <v name="RWIGS">     -1.00000000     -1.00000000     -1.00000000</v>
   <i type="int" name="NEDOS">   301</i>
   <i name="EMIN">     10.00000000</i>
   <i name="EMAX">    -10.00000000</i>
   <i name="EFERMI">      0.00000000</i>
  </separator>
  <separator name="writing" >
   <i type="int" name="NWRITE">     2</i>
   <i type="logical" name="LWAVE"> F  </i>
   <i type="logical" name="LCHARG"> T  </i>
   <i type="logical" name="LPARD"> F  </i>
   <i type="logical" name="LVTOT"> T  </i>
   <i type="logical" name="LVHAR"> F  </i>
   <i type="logical" name="LELF"> F  </i>
   <i type="logical" name="LOPTICS"> F  </i>
   <v name="STM">      0.00000000      0.00000000      0.00000000      0.00000000      0.00000000      0.00000000      0.00000000</v>
  </separator>
  <separator name="performance" >
   <i type="int" name="NPAR">     2</i>
   <i type="int" name="NSIM">     4</i>
   <i type="int" name="NBLK">    -1</i>
   <i type="logical" name="LPLANE"> T  </i>
   <i type="logical" name="LSCALAPACK"> T  </i>
   <i type="logical" name="LSCAAWARE"> F  </i>
   <i type="logical" name="LSCALU"> F  </i>
   <i type="logical" name="LASYNC"> F  </i>
   <i type="logical" name="LORBITALREAL"> F  </i>
  </separator>
  <separator name="miscellaneous" >
   <i type="int" name="IDIOT">     3</i>
   <i type="logical" name="LMUSIC"> F  </i>
   <v name="POMASS">     87.62000000     55.84700000     16.00000000</v>
   <v name="DARWINR">      0.00000000      0.00000000      0.00000000</v>
   <v name="DARWINV">      1.00000000      1.00000000      1.00000000</v>
   <i type="logical" name="LCORR"> T  </i>
  </separator>
  <i type="logical" name="GGA_COMPAT"> T  </i>
  <i type="logical" name="LBERRY"> F  </i>
  <i type="int" name="ICORELEVEL">     0</i>
  <i type="logical" name="LDAU"> T  </i>
  <v type="int" name="LDAUTYPE">     2</v>
  <v type="int" name="LDAUL">     0</v>
  <v name="LDAUU">      0.00000000</v>
  <v name="LDAUJ">      0.00000000</v>
  <i type="int" name="LDAUPRINT">     1</i>
  <i type="int" name="I_CONSTRAINED_M">     0</i>
  <separator name="electronic exchange-correlation" >
   <i type="string" name="GGA">--</i>
   <i type="int" name="VOSKOWN">     0</i>
   <i type="logical" name="LHFCALC"> F  </i>
   <i type="string" name="PRECFOCK"></i>
   <i type="logical" name="LSYMGRAD"> F  </i>
   <i type="logical" name="LHFONE"> F  </i>
   <i type="logical" name="LRHFCALC"> F  </i>
   <i type="logical" name="LTHOMAS"> F  </i>
   <i type="logical" name="LMODELHF"> F  </i>
   <i name="ENCUT4O">     -1.00000000</i>
   <i type="int" name="EXXOEP">     0</i>
   <i type="int" name="FOURORBIT">     0</i>
   <i name="AEXX">      0.00000000</i>
   <i name="HFALPHA">      0.00000000</i>
   <i name="MCALPHA">      0.00000000</i>
   <i name="ALDAX">      1.00000000</i>
   <i name="AGGAX">      1.00000000</i>
   <i name="ALDAC">      1.00000000</i>
   <i name="AGGAC">      1.00000000</i>
   <i type="int" name="NKREDX">     1</i>
   <i type="int" name="NKREDY">     1</i>
   <i type="int" name="NKREDZ">     1</i>
   <i type="logical" name="SHIFTRED"> F  </i>
   <i type="logical" name="ODDONLY"> F  </i>
   <i type="logical" name="EVENONLY"> F  </i>
   <i type="int" name="LMAXFOCK">     0</i>
   <i type="int" name="NMAXFOCKAE">     0</i>
   <i type="logical" name="LFOCKAEDFT"> F  </i>
   <i name="HFSCREEN">      0.00000000</i>
   <i name="HFSCREENC">      0.00000000</i>
   <i type="int" name="NBANDSGWLOW">     0</i>
  </separator>
  <separator name="vdW DFT" >
   <i type="logical" name="LUSE_VDW"> F  </i>
   <i name="Zab_VDW">     -0.84910000</i>
   <i name="PARAM1">      0.12340000</i>
   <i name="PARAM2">      1.00000000</i>
   <i name="PARAM3">      0.00000000</i>
  </separator>
  <separator name="model GW" >
   <i type="int" name="MODEL_GW">     0</i>
   <i name="MODEL_EPS0">     13.18530081</i>
   <i name="MODEL_ALPHA">      1.00000000</i>
  </separator>
  <separator name="linear response parameters" >
   <i type="logical" name="LEPSILON"> F  </i>
   <i type="logical" name="LRPA"> F  </i>
   <i type="logical" name="LNABLA"> F  </i>
   <i type="logical" name="LVEL"> F  </i>
   <i type="int" name="KINTER">     0</i>
   <i name="CSHIFT">      0.10000000</i>
   <i name="OMEGAMAX">     -1.00000000</i>
   <i name="DEG_THRESHOLD">      0.00200000</i>
  </separator>
  <separator name="orbital magnetization" >
   <i type="logical" name="NUCIND"> F  </i>
   <v name="MAGPOS">      0.00000000      0.00000000      0.00000000</v>
   <i type="logical" name="LNICSALL"> T  </i>
   <i type="logical" name="ORBITALMAG"> F  </i>
   <i type="logical" name="LMAGBLOCH"> F  </i>
   <i type="logical" name="LCHIMAG"> F  </i>
   <i type="logical" name="LGAUGE"> T  </i>
   <i type="int" name="MAGATOM">     0</i>
   <v name="MAGDIPOL">      0.00000000      0.00000000      0.00000000</v>
   <v name="AVECCONST">      0.00000000      0.00000000      0.00000000</v>
  </separator>
  <separator name="response functions" >
   <i type="logical" name="LADDER"> F  </i>
   <i type="logical" name="LFXC"> F  </i>
   <i type="logical" name="LHARTREE"> T  </i>
   <i type="int" name="IBSE">     0</i>
   <v type="int" name="KPOINT">    -1     0     0     0</v>
   <i type="logical" name="LTCTE"> F  </i>
   <i type="logical" name="LTETE"> F  </i>
   <i type="logical" name="LTRIPLET"> F  </i>
   <i type="logical" name="LFXCEPS"> F  </i>
   <i type="logical" name="LFXHEG"> F  </i>
   <i type="int" name="NATURALO">     0</i>
   <i type="logical" name="L2ORDER"> F  </i>
   <i type="logical" name="LUSEW"> F  </i>
   <i name="ENCUTGW">     -2.00000000</i>
   <i name="ENCUTGWSOFT">     -2.00000000</i>
   <i name="ENCUTLF">     -1.00000000</i>
   <i type="int" name="LMAXMP2">    -1</i>
   <i name="SCISSOR">      0.00000000</i>
   <i type="int" name="NOMEGA">     0</i>
   <i type="int" name="NOMEGAR">     0</i>
   <i type="int" name="NBANDSGW">    -1</i>
   <i type="int" name="NBANDSO">    -1</i>
   <i type="int" name="NBANDSV">    -1</i>
   <i type="int" name="NELM">   100</i>
   <i type="int" name="NELMHF">     1</i>
   <i type="int" name="DIM">     3</i>
   <i type="int" name="ANTIRES">     0</i>
   <i name="OMEGAMAX">    -30.00000000</i>
   <i name="OMEGAMIN">    -30.00000000</i>
   <i name="OMEGATL">   -200.00000000</i>
   <i type="int" name="OMEGAGRID">     0</i>
   <i name="CSHIFT">     -0.10000000</i>
   <i type="logical" name="SELFENERGY"> F  </i>
   <i type="logical" name="LSPECTRAL"> F  </i>
   <i type="logical" name="LSPECTRALGW"> F  </i>
   <i type="logical" name="LSINGLES"> F  </i>
   <i type="logical" name="LFERMIGW"> F  </i>
   <i type="logical" name="ODDONLYGW"> F  </i>
   <i type="logical" name="EVENONLYGW"> F  </i>
   <i type="int" name="NKREDLFX">     1</i>
   <i type="int" name="NKREDLFY">     1</i>
   <i type="int" name="NKREDLFZ">     1</i>
   <i type="int" name="MAXMEM">  1800</i>
   <i type="int" name="TELESCOPE">     0</i>
   <i type="int" name="TAUPAR">     1</i>
   <i type="int" name="OMEGAPAR">    -1</i>
   <i name="LAMBDA">      1.00000000</i>
  </separator>
  <separator name="External order field" >
   <i name="OFIELD_KAPPA">      0.00000000</i>
   <v name="OFIELD_K">      0.00000000      0.00000000      0.00000000</v>
   <i name="OFIELD_Q6_NEAR">      0.00000000</i>
   <i name="OFIELD_Q6_FAR">      0.00000000</i>
   <i name="OFIELD_A">      0.00000000</i>
  </separator>
  <separator name="solvation model" >
   <i type="logical" name="LSOL"> F  </i>
  </separator>
 </parameters>
 <atominfo>
  <atoms>      21 </atoms>
  <types>       3 </types>
  <array name="atoms" >
   <dimension dim="1">ion</dimension>
   <field type="string">element</field>
   <field type="int">atomtype</field>
   <set>
    <rc><c>Sr</c><c>   1</c></rc>
    <rc><c>Sr</c><c>   1</c></rc>
    <rc><c>Sr</c><c>   1</c></rc>
    <rc><c>Sr</c><c>   1</c></rc>
    <rc><c>Fe</c><c>   2</c></rc>
    <rc><c>Fe</c><c>   2</c></rc>
    <rc><c>Fe</c><c>   2</c></rc>
    <rc><c>Fe</c><c>   2</c></rc>
    <rc><c>O </c><c>   3</c></rc>
    <rc><c>O </c><c>   3</c></rc>
    <rc><c>O </c><c>   3</c></rc>
    <rc><c>O </c><c>   3</c></rc>
    <rc><c>O </c><c>   3</c></rc>
    <rc><c>O </c><c>   3</c></rc>
    <rc><c>O </c><c>   3</c></rc>
    <rc><c>O </c><c>   3</c></rc>
    <rc><c>O </c><c>   3</c></rc>
    <rc><c>O </c><c>   3</c></rc>
    <rc><c>O </c><c>   3</c></rc>
    <rc><c>O </c><c>   3</c></rc>
    <rc><c>O </c><c>   3</c></rc>
   </set>
  </array>
  <array name="atomtypes" >
   <dimension dim="1">type</dimension>
   <field type="int">atomspertype</field>
   <field type="string">element</field>
   <field>mass</field>
   <field>valence</field>
   <field type="string">pseudopotential</field>
   <set>
    <rc><c>   4</c><c>Sr</c><c>     87.62000000</c><c>     10.00000000</c><c>  PAW Sr                                </c></rc>
    <rc><c>   4</c><c>Fe</c><c>     55.84700000</c><c>     14.00000000</c><c>  PAW Fe                                </c></rc>
    <rc><c>  13</c><c>O </c><c>     16.00000000</c><c>      6.00000000</c><c>  PAW O_s                               </c></rc>
   </set>
  </array>
 </atominfo>
 <structure name="initialpos" >
  <crystal>
   <varray name="basis" >
    <v>       3.88680817       0.00000000       0.00000000 </v>
    <v>       0.00000000       3.88680817       0.00000000 </v>
    <v>       0.00000000       0.00000000      30.54723268 </v>
   </varray>
   <i name="volume">    461.48552838 </i>
   <varray name="rec_basis" >
    <v>       0.25728051       0.00000000       0.00000000 </v>
    <v>       0.00000000       0.25728051       0.00000000 </v>
    <v>       0.00000000       0.00000000       0.03273619 </v>
   </varray>
  </crystal>
  <varray name="positions" >
   <v>       0.50000000       0.50000000       0.06361964 </v>
   <v>       0.50000000       0.50000000       0.19085893 </v>
   <v>       0.50000000       0.50000000       0.32067323 </v>
   <v>       0.50000000       0.50000000       0.44605071 </v>
   <v>       0.00000000       0.00000000       0.00000000 </v>
   <v>       0.00000000       0.00000000       0.12723929 </v>
   <v>       0.00000000       0.00000000       0.25574575 </v>
   <v>       0.00000000       0.00000000       0.38498744 </v>
   <v>       0.50000000       0.00000000       0.00000000 </v>
   <v>       0.50000000       0.00000000       0.12723929 </v>
   <v>       0.50000000       0.00000000       0.25589645 </v>
   <v>       0.50000000       0.00000000       0.38425599 </v>
   <v>       0.00000000       0.50000000       0.00000000 </v>
   <v>       0.00000000       0.50000000       0.12723929 </v>
   <v>       0.00000000       0.50000000       0.25589645 </v>
   <v>       0.00000000       0.50000000       0.38425599 </v>
   <v>       0.00000000       0.00000000       0.06361964 </v>
   <v>       0.00000000       0.00000000       0.19085893 </v>
   <v>       0.00000000       0.00000000       0.32108997 </v>
   <v>       0.00000000       0.00000000       0.44589914 </v>
   <v>       0.50000000       0.50000000       0.52450640 </v>
  </varray>
  <varray name="selective"  type="logical" >
   <v type="logical" >  F  F  F </v>
   <v type="logical" >  F  F  F </v>
   <v type="logical" >  T  T  T </v>
   <v type="logical" >  T  T  T </v>
   <v type="logical" >  F  F  F </v>
   <v type="logical" >  F  F  F </v>
   <v type="logical" >  T  T  T </v>
   <v type="logical" >  T  T  T </v>
   <v type="logical" >  F  F  F </v>
   <v type="logical" >  F  F  F </v>
   <v type="logical" >  T  T  T </v>
   <v type="logical" >  T  T  T </v>
   <v type="logical" >  F  F  F </v>
   <v type="logical" >  F  F  F </v>
   <v type="logical" >  T  T  T </v>
   <v type="logical" >  T  T  T </v>
   <v type="logical" >  F  F  F </v>
   <v type="logical" >  F  F  F </v>
   <v type="logical" >  T  T  T </v>
   <v type="logical" >  T  T  T </v>
   <v type="logical" >  T  T  T </v>
  </varray>
  <nose>
   <v>      -3.00000000       0.00000000       0.00010000       0.00010000 </v>
  </nose>
 </structure>
 <calculation>
  <scstep>
   <time name="dav">    5.21    5.21</time>
   <time name="total">    5.70    5.71</time>
   <dipole>
    <v name="dipole">      0.00000000       0.00000000      -0.00009779 </v>
    <i name="Tr[quadrupol]">   -533.31198823 </i>
    <i name="Echarged">      0.00000000 </i>
    <i name="Edipol_quadrupol">      0.00000000 </i>
    <i name="Eion">      0.00000000 </i>
   </dipole>
   <energy>
    <i name="alphaZ">    627.67065241 </i>
    <i name="ewald">  87154.17979611 </i>
    <i name="hartreedc">-104222.55789569 </i>
    <i name="XCdc">    785.75315710 </i>
    <i name="pawpsdc">  13269.85852683 </i>
    <i name="pawaedc"> -13577.37424458 </i>
    <i name="eentropy">     -0.01361193 </i>
    <i name="bandstr">  -1405.56746789 </i>
    <i name="atom">  18840.78653830 </i>
    <i name="e_fr_energy">   1472.73545066 </i>
    <i name="e_wo_entrp">   1472.74906259 </i>
    <i name="e_0_energy">   1472.74225662 </i>
   </energy>
  </scstep>
  <scstep>
   <time name="dav">    4.98    4.99</time>
   <time name="total">    4.99    4.99</time>
   <dipole>
    <v name="dipole">      0.00000000       0.00000000      -0.00009779 </v>
    <i name="Tr[quadrupol]">   -533.31198823 </i>
    <i name="Echarged">      0.00000000 </i>
    <i name="Edipol_quadrupol">      0.00000000 </i>
    <i name="Eion">      0.00000000 </i>
   </dipole>
   <energy>
    <i name="e_fr_energy">    -32.85489021 </i>
    <i name="e_wo_entrp">    -32.84326803 </i>
    <i name="e_0_energy">    -32.84907912 </i>
   </energy>
  </scstep>
  <scstep>
   <time name="dav">    5.54    5.54</time>
   <time name="total">    5.54    5.55</time>
   <dipole>
    <v name="dipole">      0.00000000       0.00000000      -0.00009779 </v>
    <i name="Tr[quadrupol]">   -533.31198823 </i>
    <i name="Echarged">      0.00000000 </i>
    <i name="Edipol_quadrupol">      0.00000000 </i>
    <i name="Eion">      0.00000000 </i>
   </dipole>
   <energy>
    <i name="e_fr_energy">   -153.78772980 </i>
    <i name="e_wo_entrp">   -153.76185786 </i>
    <i name="e_0_energy">   -153.77479383 </i>
   </energy>
  </scstep>
  <scstep>
   <time name="dav">    7.04    7.05</time>
   <time name="total">    7.05    7.05</time>
   <dipole>
    <v name="dipole">      0.00000000       0.00000000      -0.00009779 </v>
    <i name="Tr[quadrupol]">   -533.31198823 </i>
    <i name="Echarged">      0.00000000 </i>
    <i name="Edipol_quadrupol">      0.00000000 </i>
    <i name="Eion">      0.00000000 </i>
   </dipole>
   <energy>
    <i name="e_fr_energy">   -159.25241934 </i>
    <i name="e_wo_entrp">   -159.22873427 </i>
    <i name="e_0_energy">   -159.24057680 </i>
   </energy>
  </scstep>
  <scstep>
   <time name="dav">    7.44    7.48</time>
   <time name="total">    7.61    7.65</time>
   <dipole>
    <v name="dipole">      0.00000000       0.00000000      -0.00009779 </v>
    <i name="Tr[quadrupol]">   -533.31198823 </i>
    <i name="Echarged">      0.00000000 </i>
    <i name="Edipol_quadrupol">      0.00000000 </i>
    <i name="Eion">      0.00000000 </i>
   </dipole>
   <energy>
    <i name="e_fr_energy">   -159.68313708 </i>
    <i name="e_wo_entrp">   -159.65954592 </i>
    <i name="e_0_energy">   -159.67134150 </i>
   </energy>
  </scstep>
  <scstep>
   <time name="diag">    0.65    0.65</time>
   <time name="diis">    2.66    2.66</time>
   <time name="orth">    0.16    0.16</time>
   <time name="total">    4.13    4.14</time>
   <dipole>
    <v name="dipole">      0.00000000       0.00000000       3.20384736 </v>
    <i name="Tr[quadrupol]">   -529.16723257 </i>
    <i name="Echarged">      0.00000000 </i>
    <i name="Edipol_quadrupol">      0.00000000 </i>
    <i name="Eion">      0.00000000 </i>
   </dipole>
   <energy>
    <i name="e_fr_energy">   -697.64972395 </i>
    <i name="e_wo_entrp">   -697.64401000 </i>
    <i name="e_0_energy">   -697.64686698 </i>
   </energy>
  </scstep>
  <scstep>
   <time name="diag">    0.65    0.65</time>
   <time name="diis">    2.80    2.80</time>
   <time name="orth">    0.16    0.16</time>
   <time name="total">    4.27    4.28</time>
   <dipole>
    <v name="dipole">      0.00000000       0.00000000      -3.00447614 </v>
    <i name="Tr[quadrupol]">   -538.42570624 </i>
    <i name="Echarged">      0.00000000 </i>
    <i name="Edipol_quadrupol">      0.00000000 </i>
    <i name="Eion">      0.00000000 </i>
   </dipole>
   <energy>
    <i name="e_fr_energy">   -780.60088864 </i>
    <i name="e_wo_entrp">   -780.59159184 </i>
    <i name="e_0_energy">   -780.59624024 </i>
   </energy>
  </scstep>
  <scstep>
   <time name="diag">    0.65    0.65</time>
   <time name="diis">    2.28    2.28</time>
   <time name="orth">    0.16    0.16</time>
   <time name="total">    3.75    3.75</time>
   <dipole>
    <v name="dipole">      0.00000000       0.00000000       0.29638582 </v>
    <i name="Tr[quadrupol]">   -545.11184860 </i>
    <i name="Echarged">      0.00000000 </i>
    <i name="Edipol_quadrupol">      0.00000000 </i>
    <i name="Eion">      0.00000000 </i>
   </dipole>
   <energy>
    <i name="e_fr_energy">   -254.49274583 </i>
    <i name="e_wo_entrp">   -254.47138975 </i>
    <i name="e_0_energy">   -254.48206779 </i>
   </energy>
  </scstep>
  <scstep>
   <time name="diag">    0.65    0.65</time>
   <time name="diis">    2.27    2.27</time>
   <time name="orth">    0.16    0.16</time>
   <time name="total">    3.74    3.75</time>
   <dipole>
    <v name="dipole">      0.00000000       0.00000000       0.13273258 </v>
    <i name="Tr[quadrupol]">   -535.45974956 </i>
    <i name="Echarged">      0.00000000 </i>
    <i name="Edipol_quadrupol">      0.00000000 </i>
    <i name="Eion">      0.00000000 </i>
   </dipole>
   <energy>
    <i name="e_fr_energy">   -125.17957917 </i>
    <i name="e_wo_entrp">   -125.15350986 </i>
    <i name="e_0_energy">   -125.16654451 </i>
   </energy>
  </scstep>
  <scstep>
   <time name="diag">    0.65    0.65</time>
   <time name="diis">    2.32    2.32</time>
   <time name="orth">    0.16    0.16</time>
   <time name="total">    3.80    3.80</time>
   <dipole>
    <v name="dipole">      0.00000000       0.00000000       0.07498183 </v>
    <i name="Tr[quadrupol]">   -535.62489807 </i>
    <i name="Echarged">      0.00000000 </i>
    <i name="Edipol_quadrupol">      0.00000000 </i>
    <i name="Eion">      0.00000000 </i>
   </dipole>
   <energy>
    <i name="e_fr_energy">   -121.82315576 </i>
    <i name="e_wo_entrp">   -121.81112411 </i>
    <i name="e_0_energy">   -121.81713993 </i>
   </energy>
  </scstep>
  <scstep>
   <time name="diag">    0.65    0.65</time>
   <time name="diis">    2.28    2.28</time>
   <time name="orth">    0.16    0.16</time>
   <time name="total">    3.75    3.76</time>
   <dipole>
    <v name="dipole">      0.00000000       0.00000000       0.20691327 </v>
    <i name="Tr[quadrupol]">   -534.20819026 </i>
    <i name="Echarged">      0.00000000 </i>
    <i name="Edipol_quadrupol">      0.00000000 </i>
    <i name="Eion">      0.00000000 </i>
   </dipole>
   <energy>
    <i name="e_fr_energy">   -126.31055463 </i>
    <i name="e_wo_entrp">   -126.30235101 </i>
    <i name="e_0_energy">   -126.30645282 </i>
   </energy>
  </scstep>
  <scstep>
   <time name="diag">    0.65    0.65</time>
   <time name="diis">    2.27    2.27</time>
   <time name="orth">    0.16    0.16</time>
   <time name="total">    3.74    3.75</time>
   <dipole>
    <v name="dipole">      0.00000000       0.00000000       0.08216492 </v>
    <i name="Tr[quadrupol]">   -535.51137842 </i>
    <i name="Echarged">      0.00000000 </i>
    <i name="Edipol_quadrupol">      0.00000000 </i>
    <i name="Eion">      0.00000000 </i>
   </dipole>
   <energy>
    <i name="e_fr_energy">   -121.19043542 </i>
    <i name="e_wo_entrp">   -121.16513880 </i>
    <i name="e_0_energy">   -121.17778711 </i>
   </energy>
  </scstep>
  <scstep>
   <time name="diag">    0.65    0.65</time>
   <time name="diis">    2.21    2.22</time>
   <time name="orth">    0.16    0.16</time>
   <time name="total">    3.69    3.69</time>
   <dipole>
    <v name="dipole">      0.00000000       0.00000000       0.14777020 </v>
    <i name="Tr[quadrupol]">   -534.23780725 </i>
    <i name="Echarged">      0.00000000 </i>
    <i name="Edipol_quadrupol">      0.00000000 </i>
    <i name="Eion">      0.00000000 </i>
   </dipole>
   <energy>
    <i name="e_fr_energy">   -127.04081656 </i>
    <i name="e_wo_entrp">   -127.02221535 </i>
    <i name="e_0_energy">   -127.03151595 </i>
   </energy>
  </scstep>
  <scstep>
   <time name="diag">    0.65    0.65</time>
   <time name="diis">    2.23    2.23</time>
   <time name="orth">    0.16    0.16</time>
   <time name="total">    3.70    3.70</time>
   <dipole>
    <v name="dipole">      0.00000000       0.00000000       0.26877755 </v>
    <i name="Tr[quadrupol]">   -534.68549672 </i>
    <i name="Echarged">      0.00000000 </i>
    <i name="Edipol_quadrupol">      0.00000000 </i>
    <i name="Eion">      0.00000000 </i>
   </dipole>
   <energy>
    <i name="e_fr_energy">   -135.84872178 </i>
    <i name="e_wo_entrp">   -135.83041531 </i>
    <i name="e_0_energy">   -135.83956855 </i>
   </energy>
  </scstep>
  <scstep>
   <time name="diag">    0.65    0.65</time>
   <time name="diis">    2.28    2.28</time>
   <time name="orth">    0.16    0.16</time>
   <time name="total">    3.75    3.76</time>
   <dipole>
    <v name="dipole">      0.00000000       0.00000000       0.30878493 </v>
    <i name="Tr[quadrupol]">   -534.48140280 </i>
    <i name="Echarged">      0.00000000 </i>
    <i name="Edipol_quadrupol">      0.00000000 </i>
    <i name="Eion">      0.00000000 </i>
   </dipole>
   <energy>
    <i name="e_fr_energy">   -138.28887392 </i>
    <i name="e_wo_entrp">   -138.28690710 </i>
    <i name="e_0_energy">   -138.28789051 </i>
   </energy>
  </scstep>
  <scstep>
   <time name="diag">    0.65    0.65</time>
   <time name="diis">    2.24    2.24</time>
   <time name="orth">    0.16    0.16</time>
   <time name="total">    3.71    3.71</time>
   <dipole>
    <v name="dipole">      0.00000000       0.00000000       0.28846594 </v>
    <i name="Tr[quadrupol]">   -535.24391419 </i>
    <i name="Echarged">      0.00000000 </i>
    <i name="Edipol_quadrupol">      0.00000000 </i>
    <i name="Eion">      0.00000000 </i>
   </dipole>
   <energy>
    <i name="e_fr_energy">   -136.27927358 </i>
    <i name="e_wo_entrp">   -136.27926235 </i>
    <i name="e_0_energy">   -136.27926796 </i>
   </energy>
  </scstep>
  <scstep>
   <time name="diag">    0.65    0.65</time>
   <time name="diis">    2.29    2.30</time>
   <time name="orth">    0.16    0.16</time>
   <time name="total">    3.77    3.77</time>
   <dipole>
    <v name="dipole">      0.00000000       0.00000000       0.25716412 </v>
    <i name="Tr[quadrupol]">   -535.69139827 </i>
    <i name="Echarged">      0.00000000 </i>
    <i name="Edipol_quadrupol">      0.00000000 </i>
    <i name="Eion">      0.00000000 </i>
   </dipole>
   <energy>
    <i name="e_fr_energy">   -131.44150179 </i>
    <i name="e_wo_entrp">   -131.42845342 </i>
    <i name="e_0_energy">   -131.43497761 </i>
   </energy>
  </scstep>
  <scstep>
   <time name="diag">    0.65    0.65</time>
   <time name="diis">    2.36    2.36</time>
   <time name="orth">    0.16    0.16</time>
   <time name="total">    3.83    3.83</time>
   <dipole>
    <v name="dipole">      0.00000000       0.00000000       0.26718256 </v>
    <i name="Tr[quadrupol]">   -535.60965156 </i>
    <i name="Echarged">      0.00000000 </i>
    <i name="Edipol_quadrupol">      0.00000000 </i>
    <i name="Eion">      0.00000000 </i>
   </dipole>
   <energy>
    <i name="e_fr_energy">   -129.43361047 </i>
    <i name="e_wo_entrp">   -129.43065851 </i>
    <i name="e_0_energy">   -129.43213449 </i>
   </energy>
  </scstep>
  <scstep>
   <time name="diag">    0.65    0.65</time>
   <time name="diis">    2.40    2.41</time>
   <time name="orth">    0.16    0.16</time>
   <time name="total">    3.88    3.88</time>
   <dipole>
    <v name="dipole">      0.00000000       0.00000000       0.25187889 </v>
    <i name="Tr[quadrupol]">   -535.78170830 </i>
    <i name="Echarged">      0.00000000 </i>
    <i name="Edipol_quadrupol">      0.00000000 </i>
    <i name="Eion">      0.00000000 </i>
   </dipole>
   <energy>
    <i name="e_fr_energy">   -128.79527645 </i>
    <i name="e_wo_entrp">   -128.79038857 </i>
    <i name="e_0_energy">   -128.79283251 </i>
   </energy>
  </scstep>
  <scstep>
   <time name="diag">    0.65    0.65</time>
   <time name="diis">    2.24    2.24</time>
   <time name="orth">    0.16    0.16</time>
   <time name="total">    3.72    3.72</time>
   <dipole>
    <v name="dipole">      0.00000000       0.00000000       0.14157751 </v>
    <i name="Tr[quadrupol]">   -535.25848577 </i>
    <i name="Echarged">      0.00000000 </i>
    <i name="Edipol_quadrupol">      0.00000000 </i>
    <i name="Eion">      0.00000000 </i>
   </dipole>
   <energy>
    <i name="e_fr_energy">   -125.49845002 </i>
    <i name="e_wo_entrp">   -125.48615653 </i>
    <i name="e_0_energy">   -125.49230327 </i>
   </energy>
  </scstep>
  <scstep>
   <time name="diag">    0.65    0.65</time>
   <time name="diis">    2.32    2.32</time>
   <time name="orth">    0.16    0.16</time>
   <time name="total">    3.79    3.79</time>
   <dipole>
    <v name="dipole">      0.00000000       0.00000000       0.17884378 </v>
    <i name="Tr[quadrupol]">   -535.88287638 </i>
    <i name="Echarged">      0.00000000 </i>
    <i name="Edipol_quadrupol">      0.00000000 </i>
    <i name="Eion">      0.00000000 </i>
   </dipole>
   <energy>
    <i name="e_fr_energy">   -125.95246494 </i>
    <i name="e_wo_entrp">   -125.93024604 </i>
    <i name="e_0_energy">   -125.94135549 </i>
   </energy>
  </scstep>
  <scstep>
   <time name="diag">    0.65    0.65</time>
   <time name="diis">    2.43    2.44</time>
   <time name="orth">    0.16    0.16</time>
   <time name="total">    3.91    3.91</time>
   <dipole>
    <v name="dipole">      0.00000000       0.00000000       0.18662374 </v>
    <i name="Tr[quadrupol]">   -536.28203924 </i>
    <i name="Echarged">      0.00000000 </i>
    <i name="Edipol_quadrupol">      0.00000000 </i>
    <i name="Eion">      0.00000000 </i>
   </dipole>
   <energy>
    <i name="e_fr_energy">   -125.85836067 </i>
    <i name="e_wo_entrp">   -125.83863695 </i>
    <i name="e_0_energy">   -125.84849881 </i>
   </energy>
  </scstep>
  <scstep>
   <time name="diag">    0.65    0.65</time>
   <time name="diis">    2.45    2.46</time>
   <time name="orth">    0.16    0.16</time>
   <time name="total">    3.92    3.94</time>
   <dipole>
    <v name="dipole">      0.00000000       0.00000000       0.16907820 </v>
    <i name="Tr[quadrupol]">   -536.36676835 </i>
    <i name="Echarged">      0.00000000 </i>
    <i name="Edipol_quadrupol">      0.00000000 </i>
    <i name="Eion">      0.00000000 </i>
   </dipole>
   <energy>
    <i name="e_fr_energy">   -125.48773580 </i>
    <i name="e_wo_entrp">   -125.47550034 </i>
    <i name="e_0_energy">   -125.48161807 </i>
   </energy>
  </scstep>
  <scstep>
   <time name="diag">    0.65    0.65</time>
   <time name="diis">    2.29    2.30</time>
   <time name="orth">    0.16    0.16</time>
   <time name="total">    3.77    3.77</time>
   <dipole>
    <v name="dipole">      0.00000000       0.00000000       0.14184758 </v>
    <i name="Tr[quadrupol]">   -536.54860349 </i>
    <i name="Echarged">      0.00000000 </i>
    <i name="Edipol_quadrupol">      0.00000000 </i>
    <i name="Eion">      0.00000000 </i>
   </dipole>
   <energy>
    <i name="e_fr_energy">   -125.01244007 </i>
    <i name="e_wo_entrp">   -125.00505546 </i>
    <i name="e_0_energy">   -125.00874777 </i>
   </energy>
  </scstep>
  <scstep>
   <time name="diag">    0.65    0.65</time>
   <time name="diis">    2.38    2.38</time>
   <time name="orth">    0.16    0.16</time>
   <time name="total">    3.85    3.86</time>
   <dipole>
    <v name="dipole">      0.00000000       0.00000000       0.15375577 </v>
    <i name="Tr[quadrupol]">   -536.83533620 </i>
    <i name="Echarged">      0.00000000 </i>
    <i name="Edipol_quadrupol">      0.00000000 </i>
    <i name="Eion">      0.00000000 </i>
   </dipole>
   <energy>
    <i name="e_fr_energy">   -125.04702324 </i>
    <i name="e_wo_entrp">   -125.03832992 </i>
    <i name="e_0_energy">   -125.04267658 </i>
   </energy>
  </scstep>
  <scstep>
   <time name="diag">    0.65    0.65</time>
   <time name="diis">    2.42    2.42</time>
   <time name="orth">    0.16    0.16</time>
   <time name="total">    3.89    3.90</time>
   <dipole>
    <v name="dipole">      0.00000000       0.00000000       0.14661116 </v>
    <i name="Tr[quadrupol]">   -537.26651053 </i>
    <i name="Echarged">      0.00000000 </i>
    <i name="Edipol_quadrupol">      0.00000000 </i>
    <i name="Eion">      0.00000000 </i>
   </dipole>
   <energy>
    <i name="e_fr_energy">   -124.97913085 </i>
    <i name="e_wo_entrp">   -124.96916220 </i>
    <i name="e_0_energy">   -124.97414652 </i>
   </energy>
  </scstep>
  <scstep>
   <time name="diag">    0.65    0.65</time>
   <time name="diis">    2.29    2.29</time>
   <time name="orth">    0.16    0.16</time>
   <time name="total">    3.77    3.77</time>
   <dipole>
    <v name="dipole">      0.00000000       0.00000000       0.14355635 </v>
    <i name="Tr[quadrupol]">   -537.47248463 </i>
    <i name="Echarged">      0.00000000 </i>
    <i name="Edipol_quadrupol">      0.00000000 </i>
    <i name="Eion">      0.00000000 </i>
   </dipole>
   <energy>
    <i name="e_fr_energy">   -124.98074961 </i>
    <i name="e_wo_entrp">   -124.97024594 </i>
    <i name="e_0_energy">   -124.97549777 </i>
   </energy>
  </scstep>
  <scstep>
   <time name="diag">    0.65    0.65</time>
   <time name="diis">    2.28    2.28</time>
   <time name="orth">    0.16    0.16</time>
   <time name="total">    3.76    3.76</time>
   <dipole>
    <v name="dipole">      0.00000000       0.00000000       0.13838796 </v>
    <i name="Tr[quadrupol]">   -537.52541366 </i>
    <i name="Echarged">      0.00000000 </i>
    <i name="Edipol_quadrupol">      0.00000000 </i>
    <i name="Eion">      0.00000000 </i>
   </dipole>
   <energy>
    <i name="e_fr_energy">   -124.94649393 </i>
    <i name="e_wo_entrp">   -124.93383354 </i>
    <i name="e_0_energy">   -124.94016374 </i>
   </energy>
  </scstep>
  <scstep>
   <time name="diag">    0.65    0.65</time>
   <time name="diis">    2.29    2.30</time>
   <time name="orth">    0.16    0.16</time>
   <time name="total">    3.77    3.77</time>
   <dipole>
    <v name="dipole">      0.00000000       0.00000000       0.13812024 </v>
    <i name="Tr[quadrupol]">   -537.63218194 </i>
    <i name="Echarged">      0.00000000 </i>
    <i name="Edipol_quadrupol">      0.00000000 </i>
    <i name="Eion">      0.00000000 </i>
   </dipole>
   <energy>
    <i name="e_fr_energy">   -124.88620309 </i>
    <i name="e_wo_entrp">   -124.87214271 </i>
    <i name="e_0_energy">   -124.87917290 </i>
   </energy>
  </scstep>
  <scstep>
   <time name="diag">    0.65    0.65</time>
   <time name="diis">    2.22    2.22</time>
   <time name="orth">    0.16    0.16</time>
   <time name="total">    3.70    3.71</time>
   <dipole>
    <v name="dipole">      0.00000000       0.00000000       0.13119758 </v>
    <i name="Tr[quadrupol]">   -537.65903346 </i>
    <i name="Echarged">      0.00000000 </i>
    <i name="Edipol_quadrupol">      0.00000000 </i>
    <i name="Eion">      0.00000000 </i>
   </dipole>
   <energy>
    <i name="e_fr_energy">   -125.05280068 </i>
    <i name="e_wo_entrp">   -125.03353172 </i>
    <i name="e_0_energy">   -125.04316620 </i>
   </energy>
  </scstep>
  <scstep>
   <time name="diag">    0.65    0.65</time>
   <time name="diis">    2.23    2.23</time>
   <time name="orth">    0.16    0.16</time>
   <time name="total">    3.71    3.72</time>
   <dipole>
    <v name="dipole">      0.00000000       0.00000000       0.13596127 </v>
    <i name="Tr[quadrupol]">   -537.88780227 </i>
    <i name="Echarged">      0.00000000 </i>
    <i name="Edipol_quadrupol">      0.00000000 </i>
    <i name="Eion">      0.00000000 </i>
   </dipole>
   <energy>
    <i name="e_fr_energy">   -125.21023712 </i>
    <i name="e_wo_entrp">   -125.19338205 </i>
    <i name="e_0_energy">   -125.20180959 </i>
   </energy>
  </scstep>
  <scstep>
   <time name="diag">    0.65    0.65</time>
   <time name="diis">    2.27    2.27</time>
   <time name="orth">    0.16    0.16</time>
   <time name="total">    3.75    3.75</time>
   <dipole>
    <v name="dipole">      0.00000000       0.00000000       0.15876767 </v>
    <i name="Tr[quadrupol]">   -538.21763272 </i>
    <i name="Echarged">      0.00000000 </i>
    <i name="Edipol_quadrupol">      0.00000000 </i>
    <i name="Eion">      0.00000000 </i>
   </dipole>
   <energy>
    <i name="e_fr_energy">   -125.32888893 </i>
    <i name="e_wo_entrp">   -125.31442428 </i>
    <i name="e_0_energy">   -125.32165660 </i>
   </energy>
  </scstep>
  <scstep>
   <time name="diag">    0.65    0.65</time>
   <time name="diis">    2.21    2.22</time>
   <time name="orth">    0.16    0.16</time>
   <time name="total">    3.70    3.70</time>
   <dipole>
    <v name="dipole">      0.00000000       0.00000000       0.15839992 </v>
    <i name="Tr[quadrupol]">   -538.53773236 </i>
    <i name="Echarged">      0.00000000 </i>
    <i name="Edipol_quadrupol">      0.00000000 </i>
    <i name="Eion">      0.00000000 </i>
   </dipole>
   <energy>
    <i name="e_fr_energy">   -125.52241233 </i>
    <i name="e_wo_entrp">   -125.49388974 </i>
    <i name="e_0_energy">   -125.50815103 </i>
   </energy>
  </scstep>
  <scstep>
   <time name="diag">    0.65    0.65</time>
   <time name="diis">    2.26    2.26</time>
   <time name="orth">    0.16    0.16</time>
   <time name="total">    3.75    3.75</time>
   <dipole>
    <v name="dipole">      0.00000000       0.00000000       0.16929425 </v>
    <i name="Tr[quadrupol]">   -538.64570505 </i>
    <i name="Echarged">      0.00000000 </i>
    <i name="Edipol_quadrupol">      0.00000000 </i>
    <i name="Eion">      0.00000000 </i>
   </dipole>
   <energy>
    <i name="e_fr_energy">   -125.64205666 </i>
    <i name="e_wo_entrp">   -125.61465729 </i>
    <i name="e_0_energy">   -125.62835698 </i>
   </energy>
  </scstep>
  <scstep>
   <time name="diag">    0.65    0.65</time>
   <time name="diis">    2.25    2.25</time>
   <time name="orth">    0.16    0.16</time>
   <time name="total">    3.73    3.74</time>
   <dipole>
    <v name="dipole">      0.00000000       0.00000000       0.17180029 </v>
    <i name="Tr[quadrupol]">   -538.79560358 </i>
    <i name="Echarged">      0.00000000 </i>
    <i name="Edipol_quadrupol">      0.00000000 </i>
    <i name="Eion">      0.00000000 </i>
   </dipole>
   <energy>
    <i name="e_fr_energy">   -125.71020597 </i>
    <i name="e_wo_entrp">   -125.68629458 </i>
    <i name="e_0_energy">   -125.69825028 </i>
   </energy>
  </scstep>
  <scstep>
   <time name="diag">    0.65    0.65</time>
   <time name="diis">    2.24    2.24</time>
   <time name="orth">    0.16    0.16</time>
   <time name="total">    3.73    3.73</time>
   <dipole>
    <v name="dipole">      0.00000000       0.00000000       0.15728968 </v>
    <i name="Tr[quadrupol]">   -538.86353720 </i>
    <i name="Echarged">      0.00000000 </i>
    <i name="Edipol_quadrupol">      0.00000000 </i>
    <i name="Eion">      0.00000000 </i>
   </dipole>
   <energy>
    <i name="e_fr_energy">   -125.65696126 </i>
    <i name="e_wo_entrp">   -125.63377594 </i>
    <i name="e_0_energy">   -125.64536860 </i>
   </energy>
  </scstep>
  <scstep>
   <time name="diag">    0.65    0.65</time>
   <time name="diis">    2.22    2.22</time>
   <time name="orth">    0.16    0.16</time>
   <time name="total">    3.71    3.71</time>
   <dipole>
    <v name="dipole">      0.00000000       0.00000000       0.16012010 </v>
    <i name="Tr[quadrupol]">   -538.91399978 </i>
    <i name="Echarged">      0.00000000 </i>
    <i name="Edipol_quadrupol">      0.00000000 </i>
    <i name="Eion">      0.00000000 </i>
   </dipole>
   <energy>
    <i name="e_fr_energy">   -125.61273257 </i>
    <i name="e_wo_entrp">   -125.58665696 </i>
    <i name="e_0_energy">   -125.59969476 </i>
   </energy>
  </scstep>
  <scstep>
   <time name="diag">    0.65    0.65</time>
   <time name="diis">    2.20    2.21</time>
   <time name="orth">    0.16    0.16</time>
   <time name="total">    3.69    3.70</time>
   <dipole>
    <v name="dipole">      0.00000000       0.00000000       0.16139268 </v>
    <i name="Tr[quadrupol]">   -538.88881022 </i>
    <i name="Echarged">      0.00000000 </i>
    <i name="Edipol_quadrupol">      0.00000000 </i>
    <i name="Eion">      0.00000000 </i>
   </dipole>
   <energy>
    <i name="e_fr_energy">   -125.56970602 </i>
    <i name="e_wo_entrp">   -125.54243798 </i>
    <i name="e_0_energy">   -125.55607200 </i>
   </energy>
  </scstep>
  <scstep>
   <time name="diag">    0.65    0.66</time>
   <time name="diis">    2.14    2.15</time>
   <time name="orth">    0.16    0.16</time>
   <time name="total">    3.63    3.64</time>
   <dipole>
    <v name="dipole">      0.00000000       0.00000000       0.16311739 </v>
    <i name="Tr[quadrupol]">   -538.80819613 </i>
    <i name="Echarged">      0.00000000 </i>
    <i name="Edipol_quadrupol">      0.00000000 </i>
    <i name="Eion">      0.00000000 </i>
   </dipole>
   <energy>
    <i name="e_fr_energy">   -125.80014214 </i>
    <i name="e_wo_entrp">   -125.77408442 </i>
    <i name="e_0_energy">   -125.78711328 </i>
   </energy>
  </scstep>
  <scstep>
   <time name="diag">    0.65    0.65</time>
   <time name="diis">    2.22    2.22</time>
   <time name="orth">    0.16    0.16</time>
   <time name="total">    3.71    3.71</time>
   <dipole>
    <v name="dipole">      0.00000000       0.00000000       0.18040659 </v>
    <i name="Tr[quadrupol]">   -538.99102767 </i>
    <i name="Echarged">      0.00000000 </i>
    <i name="Edipol_quadrupol">      0.00000000 </i>
    <i name="Eion">      0.00000000 </i>
   </dipole>
   <energy>
    <i name="e_fr_energy">   -125.82540857 </i>
    <i name="e_wo_entrp">   -125.80172745 </i>
    <i name="e_0_energy">   -125.81356801 </i>
   </energy>
  </scstep>
  <scstep>
   <time name="diag">    0.65    0.65</time>
   <time name="diis">    2.17    2.17</time>
   <time name="orth">    0.16    0.16</time>
   <time name="total">    3.66    3.66</time>
   <dipole>
    <v name="dipole">      0.00000000       0.00000000       0.17237364 </v>
    <i name="Tr[quadrupol]">   -539.00657289 </i>
    <i name="Echarged">      0.00000000 </i>
    <i name="Edipol_quadrupol">      0.00000000 </i>
    <i name="Eion">      0.00000000 </i>
   </dipole>
   <energy>
    <i name="e_fr_energy">   -125.87916458 </i>
    <i name="e_wo_entrp">   -125.85002906 </i>
    <i name="e_0_energy">   -125.86459682 </i>
   </energy>
  </scstep>
  <scstep>
   <time name="diag">    0.65    0.65</time>
   <time name="diis">    2.22    2.23</time>
   <time name="orth">    0.16    0.16</time>
   <time name="total">    3.71    3.72</time>
   <dipole>
    <v name="dipole">      0.00000000       0.00000000       0.17536540 </v>
    <i name="Tr[quadrupol]">   -538.93188685 </i>
    <i name="Echarged">      0.00000000 </i>
    <i name="Edipol_quadrupol">      0.00000000 </i>
    <i name="Eion">      0.00000000 </i>
   </dipole>
   <energy>
    <i name="e_fr_energy">   -125.95523248 </i>
    <i name="e_wo_entrp">   -125.93294973 </i>
    <i name="e_0_energy">   -125.94409111 </i>
   </energy>
  </scstep>
  <scstep>
   <time name="diag">    0.65    0.65</time>
   <time name="diis">    2.02    2.02</time>
   <time name="orth">    0.16    0.16</time>
   <time name="total">    3.51    3.51</time>
   <dipole>
    <v name="dipole">      0.00000000       0.00000000       0.17437846 </v>
    <i name="Tr[quadrupol]">   -538.99105102 </i>
    <i name="Echarged">      0.00000000 </i>
    <i name="Edipol_quadrupol">      0.00000000 </i>
    <i name="Eion">      0.00000000 </i>
   </dipole>
   <energy>
    <i name="e_fr_energy">   -125.89610979 </i>
    <i name="e_wo_entrp">   -125.87192407 </i>
    <i name="e_0_energy">   -125.88401693 </i>
   </energy>
  </scstep>
  <scstep>
   <time name="diag">    0.65    0.65</time>
   <time name="diis">    2.05    2.05</time>
   <time name="orth">    0.16    0.16</time>
   <time name="total">    3.54    3.55</time>
   <dipole>
    <v name="dipole">      0.00000000       0.00000000       0.17419255 </v>
    <i name="Tr[quadrupol]">   -539.00246270 </i>
    <i name="Echarged">      0.00000000 </i>
    <i name="Edipol_quadrupol">      0.00000000 </i>
    <i name="Eion">      0.00000000 </i>
   </dipole>
   <energy>
    <i name="e_fr_energy">   -125.94009629 </i>
    <i name="e_wo_entrp">   -125.92073880 </i>
    <i name="e_0_energy">   -125.93041754 </i>
   </energy>
  </scstep>
  <scstep>
   <time name="diag">    0.65    0.65</time>
   <time name="diis">    1.77    1.77</time>
   <time name="orth">    0.16    0.16</time>
   <time name="total">    3.26    3.27</time>
   <dipole>
    <v name="dipole">      0.00000000       0.00000000       0.17282768 </v>
    <i name="Tr[quadrupol]">   -539.00117464 </i>
    <i name="Echarged">      0.00000000 </i>
    <i name="Edipol_quadrupol">      0.00000000 </i>
    <i name="Eion">      0.00000000 </i>
   </dipole>
   <energy>
    <i name="e_fr_energy">   -125.94447525 </i>
    <i name="e_wo_entrp">   -125.92579910 </i>
    <i name="e_0_energy">   -125.93513717 </i>
   </energy>
  </scstep>
  <scstep>
   <time name="diag">    0.65    0.65</time>
   <time name="diis">    1.58    1.58</time>
   <time name="orth">    0.16    0.16</time>
   <time name="total">    3.07    3.08</time>
   <dipole>
    <v name="dipole">      0.00000000       0.00000000       0.17237628 </v>
    <i name="Tr[quadrupol]">   -538.99703557 </i>
    <i name="Echarged">      0.00000000 </i>
    <i name="Edipol_quadrupol">      0.00000000 </i>
    <i name="Eion">      0.00000000 </i>
   </dipole>
   <energy>
    <i name="e_fr_energy">   -125.96349851 </i>
    <i name="e_wo_entrp">   -125.94670922 </i>
    <i name="e_0_energy">   -125.95510386 </i>
   </energy>
  </scstep>
  <scstep>
   <time name="diag">    0.65    0.66</time>
   <time name="diis">    1.46    1.46</time>
   <time name="orth">    0.16    0.16</time>
   <time name="total">    2.95    2.96</time>
   <dipole>
    <v name="dipole">      0.00000000       0.00000000       0.17186420 </v>
    <i name="Tr[quadrupol]">   -538.99462881 </i>
    <i name="Echarged">      0.00000000 </i>
    <i name="Edipol_quadrupol">      0.00000000 </i>
    <i name="Eion">      0.00000000 </i>
   </dipole>
   <energy>
    <i name="e_fr_energy">   -125.93710605 </i>
    <i name="e_wo_entrp">   -125.91831161 </i>
    <i name="e_0_energy">   -125.92770883 </i>
   </energy>
  </scstep>
  <scstep>
   <time name="diag">    0.65    0.65</time>
   <time name="diis">    1.95    1.96</time>
   <time name="orth">    0.16    0.16</time>
   <time name="total">    3.45    3.46</time>
   <dipole>
    <v name="dipole">      0.00000000       0.00000000       0.16905629 </v>
    <i name="Tr[quadrupol]">   -538.99864470 </i>
    <i name="Echarged">      0.00000000 </i>
    <i name="Edipol_quadrupol">      0.00000000 </i>
    <i name="Eion">      0.00000000 </i>
   </dipole>
   <energy>
    <i name="e_fr_energy">   -125.88983410 </i>
    <i name="e_wo_entrp">   -125.86227180 </i>
    <i name="e_0_energy">   -125.87605295 </i>
   </energy>
  </scstep>
  <scstep>
   <time name="diag">    0.65    0.65</time>
   <time name="diis">    2.13    2.13</time>
   <time name="orth">    0.16    0.16</time>
   <time name="total">    3.62    3.63</time>
   <dipole>
    <v name="dipole">      0.00000000       0.00000000       0.16722645 </v>
    <i name="Tr[quadrupol]">   -539.08134172 </i>
    <i name="Echarged">      0.00000000 </i>
    <i name="Edipol_quadrupol">      0.00000000 </i>
    <i name="Eion">      0.00000000 </i>
   </dipole>
   <energy>
    <i name="e_fr_energy">   -125.71861365 </i>
    <i name="e_wo_entrp">   -125.69041175 </i>
    <i name="e_0_energy">   -125.70451270 </i>
   </energy>
  </scstep>
  <scstep>
   <time name="diag">    0.65    0.65</time>
   <time name="diis">    2.07    2.08</time>
   <time name="orth">    0.16    0.16</time>
   <time name="total">    3.57    3.58</time>
   <dipole>
    <v name="dipole">      0.00000000       0.00000000       0.16855885 </v>
    <i name="Tr[quadrupol]">   -539.13775504 </i>
    <i name="Echarged">      0.00000000 </i>
    <i name="Edipol_quadrupol">      0.00000000 </i>
    <i name="Eion">      0.00000000 </i>
   </dipole>
   <energy>
    <i name="e_fr_energy">   -125.59330788 </i>
    <i name="e_wo_entrp">   -125.56443189 </i>
    <i name="e_0_energy">   -125.57886988 </i>
   </energy>
  </scstep>
  <scstep>
   <time name="diag">    0.65    0.65</time>
   <time name="diis">    2.13    2.14</time>
   <time name="orth">    0.16    0.16</time>
   <time name="total">    3.62    3.64</time>
   <dipole>
    <v name="dipole">      0.00000000       0.00000000       0.16816518 </v>
    <i name="Tr[quadrupol]">   -539.15133880 </i>
    <i name="Echarged">      0.00000000 </i>
    <i name="Edipol_quadrupol">      0.00000000 </i>
    <i name="Eion">      0.00000000 </i>
   </dipole>
   <energy>
    <i name="e_fr_energy">   -125.53832864 </i>
    <i name="e_wo_entrp">   -125.51252528 </i>
    <i name="e_0_energy">   -125.52542696 </i>
   </energy>
  </scstep>
  <scstep>
   <time name="diag">    0.65    0.65</time>
   <time name="diis">    2.20    2.21</time>
   <time name="orth">    0.16    0.16</time>
   <time name="total">    3.70    3.71</time>
   <dipole>
    <v name="dipole">      0.00000000       0.00000000       0.16603222 </v>
    <i name="Tr[quadrupol]">   -539.16027781 </i>
    <i name="Echarged">      0.00000000 </i>
    <i name="Edipol_quadrupol">      0.00000000 </i>
    <i name="Eion">      0.00000000 </i>
   </dipole>
   <energy>
    <i name="e_fr_energy">   -125.63461820 </i>
    <i name="e_wo_entrp">   -125.61304540 </i>
    <i name="e_0_energy">   -125.62383180 </i>
   </energy>
  </scstep>
  <scstep>
   <time name="diag">    0.65    0.66</time>
   <time name="diis">    2.14    2.14</time>
   <time name="orth">    0.16    0.16</time>
   <time name="total">    3.64    3.65</time>
   <dipole>
    <v name="dipole">      0.00000000       0.00000000       0.17225878 </v>
    <i name="Tr[quadrupol]">   -538.91780284 </i>
    <i name="Echarged">      0.00000000 </i>
    <i name="Edipol_quadrupol">      0.00000000 </i>
    <i name="Eion">      0.00000000 </i>
   </dipole>
   <energy>
    <i name="e_fr_energy">   -125.74804373 </i>
    <i name="e_wo_entrp">   -125.71383884 </i>
    <i name="e_0_energy">   -125.73094129 </i>
   </energy>
  </scstep>
  <scstep>
   <time name="diag">    0.65    0.66</time>
   <time name="diis">    2.13    2.13</time>
   <time name="orth">    0.16    0.16</time>
   <time name="total">    3.62    3.64</time>
   <dipole>
    <v name="dipole">      0.00000000       0.00000000       0.16750854 </v>
    <i name="Tr[quadrupol]">   -538.99142223 </i>
    <i name="Echarged">      0.00000000 </i>
    <i name="Edipol_quadrupol">      0.00000000 </i>
    <i name="Eion">      0.00000000 </i>
   </dipole>
   <energy>
    <i name="e_fr_energy">   -125.51559436 </i>
    <i name="e_wo_entrp">   -125.48804270 </i>
    <i name="e_0_energy">   -125.50181853 </i>
   </energy>
  </scstep>
  <scstep>
   <time name="diag">    0.65    0.65</time>
   <time name="diis">    2.03    2.03</time>
   <time name="orth">    0.16    0.16</time>
   <time name="total">    3.53    3.54</time>
   <dipole>
    <v name="dipole">      0.00000000       0.00000000       0.16690807 </v>
    <i name="Tr[quadrupol]">   -538.98687587 </i>
    <i name="Echarged">      0.00000000 </i>
    <i name="Edipol_quadrupol">      0.00000000 </i>
    <i name="Eion">      0.00000000 </i>
   </dipole>
   <energy>
    <i name="e_fr_energy">   -125.74609198 </i>
    <i name="e_wo_entrp">   -125.72011615 </i>
    <i name="e_0_energy">   -125.73310406 </i>
   </energy>
  </scstep>
  <scstep>
   <time name="diag">    0.65    0.65</time>
   <time name="diis">    2.21    2.22</time>
   <time name="orth">    0.16    0.16</time>
   <time name="total">    3.71    3.72</time>
   <dipole>
    <v name="dipole">      0.00000000       0.00000000       0.17904883 </v>
    <i name="Tr[quadrupol]">   -539.00321567 </i>
    <i name="Echarged">      0.00000000 </i>
    <i name="Edipol_quadrupol">      0.00000000 </i>
    <i name="Eion">      0.00000000 </i>
   </dipole>
   <energy>
    <i name="e_fr_energy">   -126.01326939 </i>
    <i name="e_wo_entrp">   -125.99096039 </i>
    <i name="e_0_energy">   -126.00211489 </i>
   </energy>
  </scstep>
  <scstep>
   <time name="diag">    0.65    0.65</time>
   <time name="diis">    2.17    2.17</time>
   <time name="orth">    0.16    0.16</time>
   <time name="total">    3.67    3.68</time>
   <dipole>
    <v name="dipole">      0.00000000       0.00000000       0.17771089 </v>
    <i name="Tr[quadrupol]">   -538.97439529 </i>
    <i name="Echarged">      0.00000000 </i>
    <i name="Edipol_quadrupol">      0.00000000 </i>
    <i name="Eion">      0.00000000 </i>
   </dipole>
   <energy>
    <i name="e_fr_energy">   -126.00661840 </i>
    <i name="e_wo_entrp">   -125.98100199 </i>
    <i name="e_0_energy">   -125.99381020 </i>
   </energy>
  </scstep>
  <scstep>
   <time name="diag">    0.65    0.65</time>
   <time name="diis">    2.16    2.16</time>
   <time name="orth">    0.16    0.16</time>
   <time name="total">    3.66    3.67</time>
   <dipole>
    <v name="dipole">      0.00000000       0.00000000       0.17853031 </v>
    <i name="Tr[quadrupol]">   -538.83214892 </i>
    <i name="Echarged">      0.00000000 </i>
    <i name="Edipol_quadrupol">      0.00000000 </i>
    <i name="Eion">      0.00000000 </i>
   </dipole>
   <energy>
    <i name="e_fr_energy">   -126.02832257 </i>
    <i name="e_wo_entrp">   -126.00188144 </i>
    <i name="e_0_energy">   -126.01510201 </i>
   </energy>
  </scstep>
  <scstep>
   <time name="diag">    0.65    0.65</time>
   <time name="diis">    2.14    2.15</time>
   <time name="orth">    0.16    0.16</time>
   <time name="total">    3.64    3.65</time>
   <dipole>
    <v name="dipole">      0.00000000       0.00000000       0.18169385 </v>
    <i name="Tr[quadrupol]">   -538.64352879 </i>
    <i name="Echarged">      0.00000000 </i>
    <i name="Edipol_quadrupol">      0.00000000 </i>
    <i name="Eion">      0.00000000 </i>
   </dipole>
   <energy>
    <i name="e_fr_energy">   -126.06373893 </i>
    <i name="e_wo_entrp">   -126.03703993 </i>
    <i name="e_0_energy">   -126.05038943 </i>
   </energy>
  </scstep>
  <scstep>
   <time name="diag">    0.65    0.65</time>
   <time name="diis">    2.03    2.03</time>
   <time name="orth">    0.16    0.16</time>
   <time name="total">    3.54    3.54</time>
   <dipole>
    <v name="dipole">      0.00000000       0.00000000       0.18249669 </v>
    <i name="Tr[quadrupol]">   -538.59576082 </i>
    <i name="Echarged">      0.00000000 </i>
    <i name="Edipol_quadrupol">      0.00000000 </i>
    <i name="Eion">      0.00000000 </i>
   </dipole>
   <energy>
    <i name="e_fr_energy">   -126.08811481 </i>
    <i name="e_wo_entrp">   -126.06233722 </i>
    <i name="e_0_energy">   -126.07522601 </i>
   </energy>
  </scstep>
  <scstep>
   <time name="diag">    0.65    0.65</time>
   <time name="diis">    2.12    2.13</time>
   <time name="orth">    0.16    0.16</time>
   <time name="total">    3.62    3.63</time>
   <dipole>
    <v name="dipole">      0.00000000       0.00000000       0.18234798 </v>
    <i name="Tr[quadrupol]">   -538.61245831 </i>
    <i name="Echarged">      0.00000000 </i>
    <i name="Edipol_quadrupol">      0.00000000 </i>
    <i name="Eion">      0.00000000 </i>
   </dipole>
   <energy>
    <i name="e_fr_energy">   -126.01436793 </i>
    <i name="e_wo_entrp">   -125.98600080 </i>
    <i name="e_0_energy">   -126.00018436 </i>
   </energy>
  </scstep>
  <scstep>
   <time name="diag">    0.65    0.65</time>
   <time name="diis">    2.01    2.01</time>
   <time name="orth">    0.16    0.16</time>
   <time name="total">    3.51    3.52</time>
   <dipole>
    <v name="dipole">      0.00000000       0.00000000       0.18337443 </v>
    <i name="Tr[quadrupol]">   -538.58976390 </i>
    <i name="Echarged">      0.00000000 </i>
    <i name="Edipol_quadrupol">      0.00000000 </i>
    <i name="Eion">      0.00000000 </i>
   </dipole>
   <energy>
    <i name="e_fr_energy">   -126.01427000 </i>
    <i name="e_wo_entrp">   -125.98890089 </i>
    <i name="e_0_energy">   -126.00158544 </i>
   </energy>
  </scstep>
  <scstep>
   <time name="diag">    0.65    0.66</time>
   <time name="diis">    1.79    1.80</time>
   <time name="orth">    0.16    0.16</time>
   <time name="total">    3.30    3.30</time>
   <dipole>
    <v name="dipole">      0.00000000       0.00000000       0.18412746 </v>
    <i name="Tr[quadrupol]">   -538.53182080 </i>
    <i name="Echarged">      0.00000000 </i>
    <i name="Edipol_quadrupol">      0.00000000 </i>
    <i name="Eion">      0.00000000 </i>
   </dipole>
   <energy>
    <i name="e_fr_energy">   -126.03727840 </i>
    <i name="e_wo_entrp">   -126.01312526 </i>
    <i name="e_0_energy">   -126.02520183 </i>
   </energy>
  </scstep>
  <scstep>
   <time name="diag">    0.65    0.65</time>
   <time name="diis">    1.42    1.42</time>
   <time name="orth">    0.16    0.16</time>
   <time name="total">    2.92    2.93</time>
   <dipole>
    <v name="dipole">      0.00000000       0.00000000       0.18416717 </v>
    <i name="Tr[quadrupol]">   -538.51712482 </i>
    <i name="Echarged">      0.00000000 </i>
    <i name="Edipol_quadrupol">      0.00000000 </i>
    <i name="Eion">      0.00000000 </i>
   </dipole>
   <energy>
    <i name="e_fr_energy">   -126.03499309 </i>
    <i name="e_wo_entrp">   -126.01073195 </i>
    <i name="e_0_energy">   -126.02286252 </i>
   </energy>
  </scstep>
  <scstep>
   <time name="diag">    0.65    0.65</time>
   <time name="diis">    1.60    1.60</time>
   <time name="orth">    0.16    0.16</time>
   <time name="total">    3.10    3.11</time>
   <dipole>
    <v name="dipole">      0.00000000       0.00000000       0.18355191 </v>
    <i name="Tr[quadrupol]">   -538.56390648 </i>
    <i name="Echarged">      0.00000000 </i>
    <i name="Edipol_quadrupol">      0.00000000 </i>
    <i name="Eion">      0.00000000 </i>
   </dipole>
   <energy>
    <i name="e_fr_energy">   -126.03170652 </i>
    <i name="e_wo_entrp">   -126.00855817 </i>
    <i name="e_0_energy">   -126.02013234 </i>
   </energy>
  </scstep>
  <scstep>
   <time name="diag">    0.65    0.65</time>
   <time name="diis">    2.13    2.14</time>
   <time name="orth">    0.16    0.16</time>
   <time name="total">    3.63    3.64</time>
   <dipole>
    <v name="dipole">      0.00000000       0.00000000       0.18554862 </v>
    <i name="Tr[quadrupol]">   -538.51090889 </i>
    <i name="Echarged">      0.00000000 </i>
    <i name="Edipol_quadrupol">      0.00000000 </i>
    <i name="Eion">      0.00000000 </i>
   </dipole>
   <energy>
    <i name="e_fr_energy">   -125.96694736 </i>
    <i name="e_wo_entrp">   -125.93816631 </i>
    <i name="e_0_energy">   -125.95255684 </i>
   </energy>
  </scstep>
  <scstep>
   <time name="diag">    0.65    0.65</time>
   <time name="diis">    2.09    2.09</time>
   <time name="orth">    0.16    0.16</time>
   <time name="total">    3.58    3.59</time>
   <dipole>
    <v name="dipole">      0.00000000       0.00000000       0.19410725 </v>
    <i name="Tr[quadrupol]">   -538.48191382 </i>
    <i name="Echarged">      0.00000000 </i>
    <i name="Edipol_quadrupol">      0.00000000 </i>
    <i name="Eion">      0.00000000 </i>
   </dipole>
   <energy>
    <i name="e_fr_energy">   -125.94070430 </i>
    <i name="e_wo_entrp">   -125.91524712 </i>
    <i name="e_0_energy">   -125.92797571 </i>
   </energy>
  </scstep>
  <scstep>
   <time name="diag">    0.65    0.65</time>
   <time name="diis">    1.84    1.84</time>
   <time name="orth">    0.16    0.16</time>
   <time name="total">    3.33    3.34</time>
   <dipole>
    <v name="dipole">      0.00000000       0.00000000       0.19850943 </v>
    <i name="Tr[quadrupol]">   -538.42320618 </i>
    <i name="Echarged">      0.00000000 </i>
    <i name="Edipol_quadrupol">      0.00000000 </i>
    <i name="Eion">      0.00000000 </i>
   </dipole>
   <energy>
    <i name="e_fr_energy">   -125.91743713 </i>
    <i name="e_wo_entrp">   -125.89233820 </i>
    <i name="e_0_energy">   -125.90488766 </i>
   </energy>
  </scstep>
  <scstep>
   <time name="diag">    0.65    0.65</time>
   <time name="diis">    1.69    1.69</time>
   <time name="orth">    0.16    0.16</time>
   <time name="total">    3.18    3.19</time>
   <dipole>
    <v name="dipole">      0.00000000       0.00000000       0.20235258 </v>
    <i name="Tr[quadrupol]">   -538.40508740 </i>
    <i name="Echarged">      0.00000000 </i>
    <i name="Edipol_quadrupol">      0.00000000 </i>
    <i name="Eion">      0.00000000 </i>
   </dipole>
   <energy>
    <i name="e_fr_energy">   -125.87953970 </i>
    <i name="e_wo_entrp">   -125.84899860 </i>
    <i name="e_0_energy">   -125.86426915 </i>
   </energy>
  </scstep>
  <scstep>
   <time name="diag">    0.65    0.65</time>
   <time name="diis">    1.88    1.88</time>
   <time name="orth">    0.16    0.16</time>
   <time name="total">    3.38    3.39</time>
   <dipole>
    <v name="dipole">      0.00000000       0.00000000       0.21451972 </v>
    <i name="Tr[quadrupol]">   -538.90775733 </i>
    <i name="Echarged">      0.00000000 </i>
    <i name="Edipol_quadrupol">      0.00000000 </i>
    <i name="Eion">      0.00000000 </i>
   </dipole>
   <energy>
    <i name="e_fr_energy">   -125.89771363 </i>
    <i name="e_wo_entrp">   -125.87139845 </i>
    <i name="e_0_energy">   -125.88455604 </i>
   </energy>
  </scstep>
  <scstep>
   <time name="diag">    0.65    0.65</time>
   <time name="diis">    2.01    2.02</time>
   <time name="orth">    0.16    0.16</time>
   <time name="total">    3.51    3.52</time>
   <dipole>
    <v name="dipole">      0.00000000       0.00000000       0.21796984 </v>
    <i name="Tr[quadrupol]">   -539.21203449 </i>
    <i name="Echarged">      0.00000000 </i>
    <i name="Edipol_quadrupol">      0.00000000 </i>
    <i name="Eion">      0.00000000 </i>
   </dipole>
   <energy>
    <i name="e_fr_energy">   -125.92751267 </i>
    <i name="e_wo_entrp">   -125.89940606 </i>
    <i name="e_0_energy">   -125.91345937 </i>
   </energy>
  </scstep>
  <scstep>
   <time name="diag">    0.65    0.65</time>
   <time name="diis">    1.74    1.75</time>
   <time name="orth">    0.16    0.16</time>
   <time name="total">    3.24    3.25</time>
   <dipole>
    <v name="dipole">      0.00000000       0.00000000       0.21430189 </v>
    <i name="Tr[quadrupol]">   -539.26223262 </i>
    <i name="Echarged">      0.00000000 </i>
    <i name="Edipol_quadrupol">      0.00000000 </i>
    <i name="Eion">      0.00000000 </i>
   </dipole>
   <energy>
    <i name="e_fr_energy">   -125.89584431 </i>
    <i name="e_wo_entrp">   -125.86088290 </i>
    <i name="e_0_energy">   -125.87836361 </i>
   </energy>
  </scstep>
  <scstep>
   <time name="diag">    0.65    0.65</time>
   <time name="diis">    1.96    1.97</time>
   <time name="orth">    0.16    0.16</time>
   <time name="total">    3.46    3.46</time>
   <dipole>
    <v name="dipole">      0.00000000       0.00000000       0.21680662 </v>
    <i name="Tr[quadrupol]">   -539.36749665 </i>
    <i name="Echarged">      0.00000000 </i>
    <i name="Edipol_quadrupol">      0.00000000 </i>
    <i name="Eion">      0.00000000 </i>
   </dipole>
   <energy>
    <i name="e_fr_energy">   -125.90100434 </i>
    <i name="e_wo_entrp">   -125.86660855 </i>
    <i name="e_0_energy">   -125.88380644 </i>
   </energy>
  </scstep>
  <scstep>
   <time name="diag">    0.65    0.65</time>
   <time name="diis">    1.88    1.89</time>
   <time name="orth">    0.16    0.16</time>
   <time name="total">    3.37    3.39</time>
   <dipole>
    <v name="dipole">      0.00000000       0.00000000       0.22063917 </v>
    <i name="Tr[quadrupol]">   -539.35887083 </i>
    <i name="Echarged">      0.00000000 </i>
    <i name="Edipol_quadrupol">      0.00000000 </i>
    <i name="Eion">      0.00000000 </i>
   </dipole>
   <energy>
    <i name="e_fr_energy">   -125.90580899 </i>
    <i name="e_wo_entrp">   -125.87757440 </i>
    <i name="e_0_energy">   -125.89169169 </i>
   </energy>
  </scstep>
  <scstep>
   <time name="diag">    0.65    0.65</time>
   <time name="diis">    1.86    1.86</time>
   <time name="orth">    0.16    0.16</time>
   <time name="total">    3.36    3.37</time>
   <dipole>
    <v name="dipole">      0.00000000       0.00000000       0.21394640 </v>
    <i name="Tr[quadrupol]">   -539.36958696 </i>
    <i name="Echarged">      0.00000000 </i>
    <i name="Edipol_quadrupol">      0.00000000 </i>
    <i name="Eion">      0.00000000 </i>
   </dipole>
   <energy>
    <i name="e_fr_energy">   -125.89773534 </i>
    <i name="e_wo_entrp">   -125.86374659 </i>
    <i name="e_0_energy">   -125.88074096 </i>
   </energy>
  </scstep>
  <scstep>
   <time name="diag">    0.65    0.65</time>
   <time name="diis">    1.82    1.82</time>
   <time name="orth">    0.16    0.16</time>
   <time name="total">    3.31    3.32</time>
   <dipole>
    <v name="dipole">      0.00000000       0.00000000       0.21272280 </v>
    <i name="Tr[quadrupol]">   -539.38425735 </i>
    <i name="Echarged">      0.00000000 </i>
    <i name="Edipol_quadrupol">      0.00000000 </i>
    <i name="Eion">      0.00000000 </i>
   </dipole>
   <energy>
    <i name="e_fr_energy">   -125.90276245 </i>
    <i name="e_wo_entrp">   -125.87323378 </i>
    <i name="e_0_energy">   -125.88799812 </i>
   </energy>
  </scstep>
  <scstep>
   <time name="diag">    0.65    0.65</time>
   <time name="diis">    1.70    1.70</time>
   <time name="orth">    0.16    0.16</time>
   <time name="total">    3.19    3.20</time>
   <dipole>
    <v name="dipole">      0.00000000       0.00000000       0.20692254 </v>
    <i name="Tr[quadrupol]">   -539.43884872 </i>
    <i name="Echarged">      0.00000000 </i>
    <i name="Edipol_quadrupol">      0.00000000 </i>
    <i name="Eion">      0.00000000 </i>
   </dipole>
   <energy>
    <i name="e_fr_energy">   -125.90138624 </i>
    <i name="e_wo_entrp">   -125.86675024 </i>
    <i name="e_0_energy">   -125.88406824 </i>
   </energy>
  </scstep>
  <scstep>
   <time name="diag">    0.65    0.65</time>
   <time name="diis">    1.77    1.77</time>
   <time name="orth">    0.16    0.16</time>
   <time name="total">    3.27    3.28</time>
   <dipole>
    <v name="dipole">      0.00000000       0.00000000       0.20136985 </v>
    <i name="Tr[quadrupol]">   -539.49733002 </i>
    <i name="Echarged">      0.00000000 </i>
    <i name="Edipol_quadrupol">      0.00000000 </i>
    <i name="Eion">      0.00000000 </i>
   </dipole>
   <energy>
    <i name="e_fr_energy">   -125.91617617 </i>
    <i name="e_wo_entrp">   -125.88170828 </i>
    <i name="e_0_energy">   -125.89894222 </i>
   </energy>
  </scstep>
  <scstep>
   <time name="diag">    0.65    0.65</time>
   <time name="diis">    1.83    1.83</time>
   <time name="orth">    0.16    0.16</time>
   <time name="total">    3.33    3.34</time>
   <dipole>
    <v name="dipole">      0.00000000       0.00000000       0.19742233 </v>
    <i name="Tr[quadrupol]">   -539.50843442 </i>
    <i name="Echarged">      0.00000000 </i>
    <i name="Edipol_quadrupol">      0.00000000 </i>
    <i name="Eion">      0.00000000 </i>
   </dipole>
   <energy>
    <i name="e_fr_energy">   -125.91858733 </i>
    <i name="e_wo_entrp">   -125.88485254 </i>
    <i name="e_0_energy">   -125.90171993 </i>
   </energy>
  </scstep>
  <scstep>
   <time name="diag">    0.65    0.65</time>
   <time name="diis">    1.65    1.66</time>
   <time name="orth">    0.16    0.16</time>
   <time name="total">    3.16    3.17</time>
   <dipole>
    <v name="dipole">      0.00000000       0.00000000       0.19627485 </v>
    <i name="Tr[quadrupol]">   -539.57042037 </i>
    <i name="Echarged">      0.00000000 </i>
    <i name="Edipol_quadrupol">      0.00000000 </i>
    <i name="Eion">      0.00000000 </i>
   </dipole>
   <energy>
    <i name="e_fr_energy">   -125.92242778 </i>
    <i name="e_wo_entrp">   -125.88980355 </i>
    <i name="e_0_energy">   -125.90611566 </i>
   </energy>
  </scstep>
  <scstep>
   <time name="diag">    0.65    0.65</time>
   <time name="diis">    1.50    1.50</time>
   <time name="orth">    0.16    0.16</time>
   <time name="total">    3.00    3.00</time>
   <dipole>
    <v name="dipole">      0.00000000       0.00000000       0.19796527 </v>
    <i name="Tr[quadrupol]">   -539.56660307 </i>
    <i name="Echarged">      0.00000000 </i>
    <i name="Edipol_quadrupol">      0.00000000 </i>
    <i name="Eion">      0.00000000 </i>
   </dipole>
   <energy>
    <i name="e_fr_energy">   -125.92534684 </i>
    <i name="e_wo_entrp">   -125.89349020 </i>
    <i name="e_0_energy">   -125.90941852 </i>
   </energy>
  </scstep>
  <scstep>
   <time name="diag">    0.65    0.65</time>
   <time name="diis">    1.43    1.44</time>
   <time name="orth">    0.16    0.16</time>
   <time name="total">    2.94    2.94</time>
   <dipole>
    <v name="dipole">      0.00000000       0.00000000       0.19813424 </v>
    <i name="Tr[quadrupol]">   -539.50606938 </i>
    <i name="Echarged">      0.00000000 </i>
    <i name="Edipol_quadrupol">      0.00000000 </i>
    <i name="Eion">      0.00000000 </i>
   </dipole>
   <energy>
    <i name="e_fr_energy">   -125.92702865 </i>
    <i name="e_wo_entrp">   -125.89577556 </i>
    <i name="e_0_energy">   -125.91140210 </i>
   </energy>
  </scstep>
  <scstep>
   <time name="diag">    0.65    0.65</time>
   <time name="diis">    1.43    1.43</time>
   <time name="orth">    0.16    0.16</time>
   <time name="total">    2.93    2.94</time>
   <dipole>
    <v name="dipole">      0.00000000       0.00000000       0.19692204 </v>
    <i name="Tr[quadrupol]">   -539.46874814 </i>
    <i name="Echarged">      0.00000000 </i>
    <i name="Edipol_quadrupol">      0.00000000 </i>
    <i name="Eion">      0.00000000 </i>
   </dipole>
   <energy>
    <i name="e_fr_energy">   -125.92984169 </i>
    <i name="e_wo_entrp">   -125.89814449 </i>
    <i name="e_0_energy">   -125.91399309 </i>
   </energy>
  </scstep>
  <scstep>
   <time name="diag">    0.65    0.65</time>
   <time name="diis">    1.33    1.34</time>
   <time name="orth">    0.16    0.16</time>
   <time name="total">    2.84    2.84</time>
   <dipole>
    <v name="dipole">      0.00000000       0.00000000       0.19565866 </v>
    <i name="Tr[quadrupol]">   -539.48120652 </i>
    <i name="Echarged">      0.00000000 </i>
    <i name="Edipol_quadrupol">      0.00000000 </i>
    <i name="Eion">      0.00000000 </i>
   </dipole>
   <energy>
    <i name="e_fr_energy">   -125.93236498 </i>
    <i name="e_wo_entrp">   -125.90021872 </i>
    <i name="e_0_energy">   -125.91629185 </i>
   </energy>
  </scstep>
  <scstep>
   <time name="diag">    0.65    0.65</time>
   <time name="diis">    1.30    1.30</time>
   <time name="orth">    0.16    0.16</time>
   <time name="total">    2.81    2.81</time>
   <dipole>
    <v name="dipole">      0.00000000       0.00000000       0.19511264 </v>
    <i name="Tr[quadrupol]">   -539.40530231 </i>
    <i name="Echarged">      0.00000000 </i>
    <i name="Edipol_quadrupol">      0.00000000 </i>
    <i name="Eion">      0.00000000 </i>
   </dipole>
   <energy>
    <i name="e_fr_energy">   -125.93307377 </i>
    <i name="e_wo_entrp">   -125.90100229 </i>
    <i name="e_0_energy">   -125.91703803 </i>
   </energy>
  </scstep>
  <scstep>
   <time name="diag">    0.65    0.65</time>
   <time name="diis">    1.20    1.20</time>
   <time name="orth">    0.16    0.16</time>
   <time name="total">    2.51    2.52</time>
   <dipole>
    <v name="dipole">      0.00000000       0.00000000       0.19528898 </v>
    <i name="Tr[quadrupol]">   -539.36796084 </i>
    <i name="Echarged">      0.00000000 </i>
    <i name="Edipol_quadrupol">      0.00000000 </i>
    <i name="Eion">      0.00000000 </i>
   </dipole>
   <energy>
    <i name="alphaZ">    645.85938646 </i>
    <i name="ewald">  87154.17979611 </i>
    <i name="hartreedc">-104188.28177759 </i>
    <i name="XCdc">    791.53685629 </i>
    <i name="pawpsdc">  14130.51982171 </i>
    <i name="pawaedc"> -14482.97140295 </i>
    <i name="eentropy">     -0.03129020 </i>
    <i name="bandstr">  -3017.53107709 </i>
    <i name="atom">  18840.78653830 </i>
    <i name="e_fr_energy">   -125.93314898 </i>
    <i name="e_wo_entrp">   -125.90185877 </i>
    <i name="e_0_energy">   -125.91750388 </i>
   </energy>
  </scstep>
  <structure>
   <crystal>
    <varray name="basis" >
     <v>       3.88680817       0.00000000       0.00000000 </v>
     <v>       0.00000000       3.88680817       0.00000000 </v>
     <v>       0.00000000       0.00000000      30.54723268 </v>
    </varray>
    <i name="volume">    461.48552838 </i>
    <varray name="rec_basis" >
     <v>       0.25728051       0.00000000       0.00000000 </v>
     <v>       0.00000000       0.25728051       0.00000000 </v>
     <v>       0.00000000       0.00000000       0.03273619 </v>
    </varray>
   </crystal>
   <varray name="positions" >
    <v>       0.50000000       0.50000000       0.06361964 </v>
    <v>       0.50000000       0.50000000       0.19085893 </v>
    <v>       0.50000000       0.50000000       0.32067323 </v>
    <v>       0.50000000       0.50000000       0.44605071 </v>
    <v>       0.00000000       0.00000000       0.00000000 </v>
    <v>       0.00000000       0.00000000       0.12723929 </v>
    <v>       0.00000000       0.00000000       0.25574575 </v>
    <v>       0.00000000       0.00000000       0.38498744 </v>
    <v>       0.50000000       0.00000000       0.00000000 </v>
    <v>       0.50000000       0.00000000       0.12723929 </v>
    <v>       0.50000000       0.00000000       0.25589645 </v>
    <v>       0.50000000       0.00000000       0.38425599 </v>
    <v>       0.00000000       0.50000000       0.00000000 </v>
    <v>       0.00000000       0.50000000       0.12723929 </v>
    <v>       0.00000000       0.50000000       0.25589645 </v>
    <v>       0.00000000       0.50000000       0.38425599 </v>
    <v>       0.00000000       0.00000000       0.06361964 </v>
    <v>       0.00000000       0.00000000       0.19085893 </v>
    <v>       0.00000000       0.00000000       0.32108997 </v>
    <v>       0.00000000       0.00000000       0.44589914 </v>
    <v>       0.50000000       0.50000000       0.52450640 </v>
   </varray>
  </structure>
  <varray name="forces" >
   <v>       0.00000000       0.00000000      -0.36746662 </v>
   <v>       0.00000000       0.00000000       0.04981673 </v>
   <v>       0.00000000       0.00000000      -0.02327588 </v>
   <v>       0.00000000       0.00000000       0.35620190 </v>
   <v>       0.00000000       0.00000000       0.21613920 </v>
   <v>       0.00000000       0.00000000      -0.06011015 </v>
   <v>       0.00000000       0.00000000       0.08145557 </v>
   <v>       0.00000000       0.00000000       0.33691177 </v>
   <v>       0.00000000       0.00000000      -0.23740757 </v>
   <v>       0.00000000       0.00000000       0.05341919 </v>
   <v>       0.00000000       0.00000000      -0.01760096 </v>
   <v>       0.00000000       0.00000000      -0.08120168 </v>
   <v>       0.00000000       0.00000000      -0.23740757 </v>
   <v>       0.00000000       0.00000000       0.05341919 </v>
   <v>       0.00000000       0.00000000      -0.01760096 </v>
[...]
    <i name="Eion">      0.00000000 </i>
   </dipole>
   <energy>
    <i name="e_fr_energy">   -126.38156195 </i>
    <i name="e_wo_entrp">   -126.36434165 </i>
    <i name="e_0_energy">   -126.37295180 </i>
   </energy>
  </scstep>
  <scstep>
   <time name="diag">    0.65    0.66</time>
   <time name="diis">    2.16    2.16</time>
   <time name="orth">    0.16    0.16</time>
   <time name="total">    3.63    3.64</time>
   <dipole>
    <v name="dipole">      0.00000000       0.00000000       0.13171160 </v>
    <i name="Tr[quadrupol]">   -540.26610135 </i>
    <i name="Echarged">      0.00000000 </i>
    <i name="Edipol_quadrupol">      0.00000000 </i>
    <i name="Eion">      0.00000000 </i>
   </dipole>
   <energy>
    <i name="e_fr_energy">   -126.40923333 </i>
    <i name="e_wo_entrp">   -126.39491479 </i>
    <i name="e_0_energy">   -126.40207406 </i>
   </energy>
  </scstep>
  <scstep>
   <time name="diag">    0.66    0.66</time>
   <time name="diis">    1.92    1.92</time>
   <time name="orth">    0.16    0.16</time>
   <time name="total">    3.41    3.41</time>
   <dipole>
    <v name="dipole">      0.00000000       0.00000000       0.13051521 </v>
    <i name="Tr[quadrupol]">   -540.34063248 </i>
    <i name="Echarged">      0.00000000 </i>
    <i name="Edipol_quadrupol">      0.00000000 </i>
    <i name="Eion">      0.00000000 </i>
   </dipole>
   <energy>
    <i name="e_fr_energy">   -126.40608029 </i>
    <i name="e_wo_entrp">   -126.39041460 </i>
    <i name="e_0_energy">   -126.39824744 </i>
   </energy>
  </scstep>
  <scstep>
   <time name="diag">    0.66    0.66</time>
   <time name="diis">    2.03    2.03</time>
   <time name="orth">    0.16    0.16</time>
   <time name="total">    3.51    3.52</time>
   <dipole>
    <v name="dipole">      0.00000000       0.00000000       0.12711755 </v>
    <i name="Tr[quadrupol]">   -540.46243768 </i>
    <i name="Echarged">      0.00000000 </i>
    <i name="Edipol_quadrupol">      0.00000000 </i>
    <i name="Eion">      0.00000000 </i>
   </dipole>
   <energy>
    <i name="e_fr_energy">   -126.37361714 </i>
    <i name="e_wo_entrp">   -126.35069746 </i>
    <i name="e_0_energy">   -126.36215730 </i>
   </energy>
  </scstep>
  <scstep>
   <time name="diag">    0.66    0.66</time>
   <time name="diis">    2.04    2.04</time>
   <time name="orth">    0.16    0.16</time>
   <time name="total">    3.52    3.53</time>
   <dipole>
    <v name="dipole">      0.00000000       0.00000000       0.12831397 </v>
    <i name="Tr[quadrupol]">   -540.29927273 </i>
    <i name="Echarged">      0.00000000 </i>
    <i name="Edipol_quadrupol">      0.00000000 </i>
    <i name="Eion">      0.00000000 </i>
   </dipole>
   <energy>
    <i name="e_fr_energy">   -126.37061430 </i>
    <i name="e_wo_entrp">   -126.34772915 </i>
    <i name="e_0_energy">   -126.35917173 </i>
   </energy>
  </scstep>
  <scstep>
   <time name="diag">    0.65    0.66</time>
   <time name="diis">    2.07    2.07</time>
   <time name="orth">    0.16    0.16</time>
   <time name="total">    3.54    3.55</time>
   <dipole>
    <v name="dipole">      0.00000000       0.00000000       0.13271758 </v>
    <i name="Tr[quadrupol]">   -540.26392103 </i>
    <i name="Echarged">      0.00000000 </i>
    <i name="Edipol_quadrupol">      0.00000000 </i>
    <i name="Eion">      0.00000000 </i>
   </dipole>
   <energy>
    <i name="e_fr_energy">   -126.35935004 </i>
    <i name="e_wo_entrp">   -126.34028955 </i>
    <i name="e_0_energy">   -126.34981980 </i>
   </energy>
  </scstep>
  <scstep>
   <time name="diag">    0.66    0.66</time>
   <time name="diis">    2.01    2.02</time>
   <time name="orth">    0.16    0.16</time>
   <time name="total">    3.49    3.50</time>
   <dipole>
    <v name="dipole">      0.00000000       0.00000000       0.13002894 </v>
    <i name="Tr[quadrupol]">   -540.28573365 </i>
    <i name="Echarged">      0.00000000 </i>
    <i name="Edipol_quadrupol">      0.00000000 </i>
    <i name="Eion">      0.00000000 </i>
   </dipole>
   <energy>
    <i name="e_fr_energy">   -126.37779148 </i>
    <i name="e_wo_entrp">   -126.35718258 </i>
    <i name="e_0_energy">   -126.36748703 </i>
   </energy>
  </scstep>
  <scstep>
   <time name="diag">    0.65    0.66</time>
   <time name="diis">    2.14    2.14</time>
   <time name="orth">    0.16    0.16</time>
   <time name="total">    3.62    3.63</time>
   <dipole>
    <v name="dipole">      0.00000000       0.00000000       0.12033943 </v>
    <i name="Tr[quadrupol]">   -540.34463584 </i>
    <i name="Echarged">      0.00000000 </i>
    <i name="Edipol_quadrupol">      0.00000000 </i>
    <i name="Eion">      0.00000000 </i>
   </dipole>
   <energy>
    <i name="e_fr_energy">   -126.39887800 </i>
    <i name="e_wo_entrp">   -126.36105214 </i>
    <i name="e_0_energy">   -126.37996507 </i>
   </energy>
  </scstep>
  <scstep>
   <time name="diag">    0.66    0.66</time>
   <time name="diis">    1.86    1.87</time>
   <time name="orth">    0.16    0.16</time>
   <time name="total">    3.35    3.36</time>
   <dipole>
    <v name="dipole">      0.00000000       0.00000000       0.12093361 </v>
    <i name="Tr[quadrupol]">   -540.45798521 </i>
    <i name="Echarged">      0.00000000 </i>
    <i name="Edipol_quadrupol">      0.00000000 </i>
    <i name="Eion">      0.00000000 </i>
   </dipole>
   <energy>
    <i name="e_fr_energy">   -126.38795444 </i>
    <i name="e_wo_entrp">   -126.35019207 </i>
    <i name="e_0_energy">   -126.36907326 </i>
   </energy>
  </scstep>
  <scstep>
   <time name="diag">    0.65    0.66</time>
   <time name="diis">    1.75    1.75</time>
   <time name="orth">    0.16    0.16</time>
   <time name="total">    3.23    3.24</time>
   <dipole>
    <v name="dipole">      0.00000000       0.00000000       0.11856330 </v>
    <i name="Tr[quadrupol]">   -540.51195588 </i>
    <i name="Echarged">      0.00000000 </i>
    <i name="Edipol_quadrupol">      0.00000000 </i>
    <i name="Eion">      0.00000000 </i>
   </dipole>
   <energy>
    <i name="e_fr_energy">   -126.38361209 </i>
    <i name="e_wo_entrp">   -126.34516105 </i>
    <i name="e_0_energy">   -126.36438657 </i>
   </energy>
  </scstep>
  <scstep>
   <time name="diag">    0.65    0.66</time>
   <time name="diis">    2.08    2.08</time>
   <time name="orth">    0.16    0.16</time>
   <time name="total">    3.56    3.56</time>
   <dipole>
    <v name="dipole">      0.00000000       0.00000000       0.12215459 </v>
    <i name="Tr[quadrupol]">   -540.44791328 </i>
    <i name="Echarged">      0.00000000 </i>
    <i name="Edipol_quadrupol">      0.00000000 </i>
    <i name="Eion">      0.00000000 </i>
   </dipole>
   <energy>
    <i name="e_fr_energy">   -126.36158895 </i>
    <i name="e_wo_entrp">   -126.33437416 </i>
    <i name="e_0_energy">   -126.34798155 </i>
   </energy>
  </scstep>
  <scstep>
   <time name="diag">    0.65    0.66</time>
   <time name="diis">    1.85    1.85</time>
   <time name="orth">    0.16    0.16</time>
   <time name="total">    3.33    3.34</time>
   <dipole>
    <v name="dipole">      0.00000000       0.00000000       0.11965873 </v>
    <i name="Tr[quadrupol]">   -540.43908626 </i>
    <i name="Echarged">      0.00000000 </i>
    <i name="Edipol_quadrupol">      0.00000000 </i>
    <i name="Eion">      0.00000000 </i>
   </dipole>
   <energy>
    <i name="e_fr_energy">   -126.37198032 </i>
    <i name="e_wo_entrp">   -126.34323694 </i>
    <i name="e_0_energy">   -126.35760863 </i>
   </energy>
  </scstep>
  <scstep>
   <time name="diag">    0.65    0.66</time>
   <time name="diis">    1.65    1.65</time>
   <time name="orth">    0.16    0.16</time>
   <time name="total">    3.13    3.14</time>
   <dipole>
    <v name="dipole">      0.00000000       0.00000000       0.11821160 </v>
    <i name="Tr[quadrupol]">   -540.45532446 </i>
    <i name="Echarged">      0.00000000 </i>
    <i name="Edipol_quadrupol">      0.00000000 </i>
    <i name="Eion">      0.00000000 </i>
   </dipole>
   <energy>
    <i name="e_fr_energy">   -126.36446640 </i>
    <i name="e_wo_entrp">   -126.33406974 </i>
    <i name="e_0_energy">   -126.34926807 </i>
   </energy>
  </scstep>
  <scstep>
   <time name="diag">    0.66    0.66</time>
   <time name="diis">    1.79    1.80</time>
   <time name="orth">    0.16    0.16</time>
   <time name="total">    3.28    3.28</time>
   <dipole>
    <v name="dipole">      0.00000000       0.00000000       0.11921203 </v>
    <i name="Tr[quadrupol]">   -540.46920490 </i>
    <i name="Echarged">      0.00000000 </i>
    <i name="Edipol_quadrupol">      0.00000000 </i>
    <i name="Eion">      0.00000000 </i>
   </dipole>
   <energy>
    <i name="e_fr_energy">   -126.34622417 </i>
    <i name="e_wo_entrp">   -126.31755548 </i>
    <i name="e_0_energy">   -126.33188982 </i>
   </energy>
  </scstep>
  <scstep>
   <time name="diag">    0.66    0.66</time>
   <time name="diis">    1.40    1.40</time>
   <time name="orth">    0.16    0.16</time>
   <time name="total">    2.88    2.89</time>
   <dipole>
    <v name="dipole">      0.00000000       0.00000000       0.11985742 </v>
    <i name="Tr[quadrupol]">   -540.46173725 </i>
    <i name="Echarged">      0.00000000 </i>
    <i name="Edipol_quadrupol">      0.00000000 </i>
    <i name="Eion">      0.00000000 </i>
   </dipole>
   <energy>
    <i name="e_fr_energy">   -126.35407162 </i>
    <i name="e_wo_entrp">   -126.32567905 </i>
    <i name="e_0_energy">   -126.33987533 </i>
   </energy>
  </scstep>
  <scstep>
   <time name="diag">    0.65    0.66</time>
   <time name="diis">    1.58    1.59</time>
   <time name="orth">    0.16    0.16</time>
   <time name="total">    3.07    3.07</time>
   <dipole>
    <v name="dipole">      0.00000000       0.00000000       0.12059802 </v>
    <i name="Tr[quadrupol]">   -540.43496392 </i>
    <i name="Echarged">      0.00000000 </i>
    <i name="Edipol_quadrupol">      0.00000000 </i>
    <i name="Eion">      0.00000000 </i>
   </dipole>
   <energy>
    <i name="e_fr_energy">   -126.36889634 </i>
    <i name="e_wo_entrp">   -126.34039461 </i>
    <i name="e_0_energy">   -126.35464548 </i>
   </energy>
  </scstep>
  <scstep>
   <time name="diag">    0.66    0.66</time>
   <time name="diis">    1.84    1.85</time>
   <time name="orth">    0.16    0.16</time>
   <time name="total">    3.33    3.34</time>
   <dipole>
    <v name="dipole">      0.00000000       0.00000000       0.12041859 </v>
    <i name="Tr[quadrupol]">   -540.27376245 </i>
    <i name="Echarged">      0.00000000 </i>
    <i name="Edipol_quadrupol">      0.00000000 </i>
    <i name="Eion">      0.00000000 </i>
   </dipole>
   <energy>
    <i name="e_fr_energy">   -126.39043717 </i>
    <i name="e_wo_entrp">   -126.35908894 </i>
    <i name="e_0_energy">   -126.37476306 </i>
   </energy>
  </scstep>
  <scstep>
   <time name="diag">    0.66    0.66</time>
   <time name="diis">    1.53    1.53</time>
   <time name="orth">    0.16    0.16</time>
   <time name="total">    3.02    3.02</time>
   <dipole>
    <v name="dipole">      0.00000000       0.00000000       0.12183521 </v>
    <i name="Tr[quadrupol]">   -540.32067202 </i>
    <i name="Echarged">      0.00000000 </i>
    <i name="Edipol_quadrupol">      0.00000000 </i>
    <i name="Eion">      0.00000000 </i>
   </dipole>
   <energy>
    <i name="e_fr_energy">   -126.39386606 </i>
    <i name="e_wo_entrp">   -126.36113788 </i>
    <i name="e_0_energy">   -126.37750197 </i>
   </energy>
  </scstep>
  <scstep>
   <time name="diag">    0.65    0.66</time>
   <time name="diis">    1.43    1.43</time>
   <time name="orth">    0.16    0.16</time>
   <time name="total">    2.91    2.92</time>
   <dipole>
    <v name="dipole">      0.00000000       0.00000000       0.12214273 </v>
    <i name="Tr[quadrupol]">   -540.35123759 </i>
    <i name="Echarged">      0.00000000 </i>
    <i name="Edipol_quadrupol">      0.00000000 </i>
    <i name="Eion">      0.00000000 </i>
   </dipole>
   <energy>
    <i name="e_fr_energy">   -126.39436195 </i>
    <i name="e_wo_entrp">   -126.35980237 </i>
    <i name="e_0_energy">   -126.37708216 </i>
   </energy>
  </scstep>
  <scstep>
   <time name="diag">    0.65    0.65</time>
   <time name="diis">    1.51    1.51</time>
   <time name="orth">    0.16    0.16</time>
   <time name="total">    2.99    3.00</time>
   <dipole>
    <v name="dipole">      0.00000000       0.00000000       0.12176913 </v>
    <i name="Tr[quadrupol]">   -540.40331369 </i>
    <i name="Echarged">      0.00000000 </i>
    <i name="Edipol_quadrupol">      0.00000000 </i>
    <i name="Eion">      0.00000000 </i>
   </dipole>
   <energy>
    <i name="e_fr_energy">   -126.38123934 </i>
    <i name="e_wo_entrp">   -126.34903343 </i>
    <i name="e_0_energy">   -126.36513639 </i>
   </energy>
  </scstep>
  <scstep>
   <time name="diag">    0.66    0.66</time>
   <time name="diis">    1.36    1.37</time>
   <time name="orth">    0.16    0.16</time>
   <time name="total">    2.85    2.86</time>
   <dipole>
    <v name="dipole">      0.00000000       0.00000000       0.12068966 </v>
    <i name="Tr[quadrupol]">   -540.40427882 </i>
    <i name="Echarged">      0.00000000 </i>
    <i name="Edipol_quadrupol">      0.00000000 </i>
    <i name="Eion">      0.00000000 </i>
   </dipole>
   <energy>
    <i name="e_fr_energy">   -126.38607946 </i>
    <i name="e_wo_entrp">   -126.35314248 </i>
    <i name="e_0_energy">   -126.36961097 </i>
   </energy>
  </scstep>
  <scstep>
   <time name="diag">    0.66    0.66</time>
   <time name="diis">    1.35    1.36</time>
   <time name="orth">    0.16    0.16</time>
   <time name="total">    2.84    2.85</time>
   <dipole>
    <v name="dipole">      0.00000000       0.00000000       0.12024940 </v>
    <i name="Tr[quadrupol]">   -540.41643143 </i>
    <i name="Echarged">      0.00000000 </i>
    <i name="Edipol_quadrupol">      0.00000000 </i>
    <i name="Eion">      0.00000000 </i>
   </dipole>
   <energy>
    <i name="e_fr_energy">   -126.38336184 </i>
    <i name="e_wo_entrp">   -126.35235699 </i>
    <i name="e_0_energy">   -126.36785941 </i>
   </energy>
  </scstep>
  <scstep>
   <time name="diag">    0.66    0.66</time>
   <time name="diis">    1.34    1.34</time>
   <time name="orth">    0.16    0.16</time>
   <time name="total">    2.83    2.84</time>
   <dipole>
    <v name="dipole">      0.00000000       0.00000000       0.11987574 </v>
    <i name="Tr[quadrupol]">   -540.42188898 </i>
    <i name="Echarged">      0.00000000 </i>
    <i name="Edipol_quadrupol">      0.00000000 </i>
    <i name="Eion">      0.00000000 </i>
   </dipole>
   <energy>
    <i name="e_fr_energy">   -126.38563269 </i>
    <i name="e_wo_entrp">   -126.35531981 </i>
    <i name="e_0_energy">   -126.37047625 </i>
   </energy>
  </scstep>
  <scstep>
   <time name="diag">    0.66    0.66</time>
   <time name="diis">    1.28    1.28</time>
   <time name="orth">    0.16    0.16</time>
   <time name="total">    2.77    2.78</time>
   <dipole>
    <v name="dipole">      0.00000000       0.00000000       0.11966241 </v>
    <i name="Tr[quadrupol]">   -540.42414538 </i>
    <i name="Echarged">      0.00000000 </i>
    <i name="Edipol_quadrupol">      0.00000000 </i>
    <i name="Eion">      0.00000000 </i>
   </dipole>
   <energy>
    <i name="e_fr_energy">   -126.38680823 </i>
    <i name="e_wo_entrp">   -126.35673061 </i>
    <i name="e_0_energy">   -126.37176942 </i>
   </energy>
  </scstep>
  <scstep>
   <time name="diag">    0.66    0.66</time>
   <time name="diis">    1.16    1.17</time>
   <time name="orth">    0.16    0.16</time>
   <time name="total">    2.48    2.49</time>
   <dipole>
    <v name="dipole">      0.00000000       0.00000000       0.11954754 </v>
    <i name="Tr[quadrupol]">   -540.42617475 </i>
    <i name="Echarged">      0.00000000 </i>
    <i name="Edipol_quadrupol">      0.00000000 </i>
    <i name="Eion">      0.00000000 </i>
   </dipole>
   <energy>
    <i name="alphaZ">    642.36005931 </i>
    <i name="ewald">  87131.15010110 </i>
    <i name="hartreedc">-104195.50365754 </i>
    <i name="XCdc">    791.83276695 </i>
    <i name="pawpsdc">  14133.61959170 </i>
    <i name="pawaedc"> -14486.13621695 </i>
    <i name="eentropy">     -0.02993715 </i>
    <i name="bandstr">  -2984.46610947 </i>
    <i name="atom">  18840.78653830 </i>
    <i name="e_fr_energy">   -126.38686373 </i>
    <i name="e_wo_entrp">   -126.35692658 </i>
    <i name="e_0_energy">   -126.37189516 </i>
   </energy>
  </scstep>
  <structure>
   <crystal>
    <varray name="basis" >
     <v>       3.88680817       0.00000000       0.00000000 </v>
     <v>       0.00000000       3.88680817       0.00000000 </v>
     <v>       0.00000000       0.00000000      30.54723268 </v>
    </varray>
    <i name="volume">    461.48552838 </i>
    <varray name="rec_basis" >
     <v>       0.25728051       0.00000000       0.00000000 </v>
     <v>       0.00000000       0.25728051       0.00000000 </v>
     <v>       0.00000000       0.00000000       0.03273619 </v>
    </varray>
   </crystal>
   <varray name="positions" >
    <v>       0.50000000       0.50000000       0.06361964 </v>
    <v>       0.50000000       0.50000000       0.19085893 </v>
    <v>       0.50000000       0.50000000       0.32063010 </v>
    <v>       0.50000000       0.50000000       0.44635277 </v>
    <v>       0.00000000       0.00000000       0.00000000 </v>
    <v>       0.00000000       0.00000000       0.12723929 </v>
    <v>       0.00000000       0.00000000       0.25589072 </v>
    <v>       0.00000000       0.00000000       0.38520504 </v>
    <v>       0.50000000       0.00000000       0.00000000 </v>
    <v>       0.50000000       0.00000000       0.12723929 </v>
    <v>       0.50000000       0.00000000       0.25582416 </v>
    <v>       0.50000000       0.00000000       0.38409763 </v>
    <v>       0.00000000       0.50000000       0.00000000 </v>
    <v>       0.00000000       0.50000000       0.12723929 </v>
    <v>       0.00000000       0.50000000       0.25582416 </v>
    <v>       0.00000000       0.50000000       0.38409763 </v>
    <v>       0.00000000       0.00000000       0.06361964 </v>
    <v>       0.00000000       0.00000000       0.19085893 </v>
    <v>       0.00000000       0.00000000       0.32109964 </v>
    <v>       0.00000000       0.00000000       0.44531518 </v>
    <v>       0.50000000       0.50000000       0.52482617 </v>
   </varray>
  </structure>
  <varray name="forces" >
   <v>       0.00000000       0.00000000      -0.36716137 </v>
   <v>       0.00000000       0.00000000       0.06214534 </v>
   <v>       0.00000000       0.00000000      -0.01480512 </v>
   <v>       0.00000000       0.00000000      -0.10616021 </v>
   <v>       0.00000000       0.00000000       0.21416868 </v>
   <v>       0.00000000       0.00000000      -0.03016072 </v>
   <v>       0.00000000       0.00000000       0.02809583 </v>
   <v>       0.00000000       0.00000000      -0.13628902 </v>
   <v>       0.00000000       0.00000000      -0.23546748 </v>
   <v>       0.00000000       0.00000000       0.04672216 </v>
   <v>       0.00000000       0.00000000      -0.00984984 </v>
   <v>       0.00000000       0.00000000       0.01526586 </v>
   <v>       0.00000000       0.00000000      -0.23546748 </v>
   <v>       0.00000000       0.00000000       0.04672216 </v>
   <v>       0.00000000       0.00000000      -0.00984984 </v>
   <v>       0.00000000       0.00000000       0.01526586 </v>
   <v>       0.00000000       0.00000000       0.32166782 </v>
   <v>       0.00000000       0.00000000       0.19073889 </v>
   <v>       0.00000000       0.00000000       0.02647993 </v>
   <v>       0.00000000       0.00000000       0.08359325 </v>
   <v>       0.00000000       0.00000000       0.09434528 </v>
  </varray>
  <energy>
   <i name="e_fr_energy">   -126.38686373 </i>
   <i name="e_wo_entrp">   -126.37189516 </i>
   <i name="e_0_energy">     -0.02993715 </i>
  </energy>
