unknown system                          
           1
     3.886808    0.000000    0.000000
     0.000000    3.886808    0.000000
     0.000000    0.000000   30.547233
   Sr   Fe   O 
   4   4  13
Direct configuration=     1
   0.50000000  0.50000000  0.06361964
   0.50000000  0.50000000  0.19085893
   0.50000000  0.50000000  0.32067323
   0.50000000  0.50000000  0.44605071
   0.00000000  0.00000000  0.00000000
   0.00000000  0.00000000  0.12723929
   0.00000000  0.00000000  0.25574575
   0.00000000  0.00000000  0.38498744
   0.50000000  0.00000000  0.00000000
   0.50000000  0.00000000  0.12723929
   0.50000000  0.00000000  0.25589645
   0.50000000  0.00000000  0.38425599
   0.00000000  0.50000000  0.00000000
   0.00000000  0.50000000  0.12723929
   0.00000000  0.50000000  0.25589645
   0.00000000  0.50000000  0.38425599
   0.00000000  0.00000000  0.06361964
   0.00000000  0.00000000  0.19085893
   0.00000000  0.00000000  0.32108997
   0.00000000  0.00000000  0.44589914
   0.50000000  0.50000000  0.52450640
Direct configuration=     2
   0.50000000  0.50000000  0.06361964
   0.50000000  0.50000000  0.19085893
   0.50000000  0.50000000  0.32063647
   0.50000000  0.50000000  0.44661326
   0.00000000  0.00000000  0.00000000
   0.00000000  0.00000000  0.12723929
   0.00000000  0.00000000  0.25587440
   0.00000000  0.00000000  0.38551952
   0.50000000  0.00000000  0.00000000
   0.50000000  0.00000000  0.12723929
   0.50000000  0.00000000  0.25586866
   0.50000000  0.00000000  0.38412775
   0.00000000  0.50000000  0.00000000
   0.00000000  0.50000000  0.12723929
   0.00000000  0.50000000  0.25586866
   0.00000000  0.50000000  0.38412775
   0.00000000  0.00000000  0.06361964
   0.00000000  0.00000000  0.19085893
   0.00000000  0.00000000  0.32096733
   0.00000000  0.00000000  0.44525666
   0.50000000  0.50000000  0.52439264
Direct configuration=     3
   0.50000000  0.50000000  0.06361964
   0.50000000  0.50000000  0.19085893
   0.50000000  0.50000000  0.32063460
   0.50000000  0.50000000  0.44664178
   0.00000000  0.00000000  0.00000000
   0.00000000  0.00000000  0.12723929
   0.00000000  0.00000000  0.25588092
   0.00000000  0.00000000  0.38554650
   0.50000000  0.00000000  0.00000000
   0.50000000  0.00000000  0.12723929
   0.50000000  0.00000000  0.25586725
   0.50000000  0.00000000  0.38412125
   0.00000000  0.50000000  0.00000000
   0.00000000  0.50000000  0.12723929
   0.00000000  0.50000000  0.25586725
   0.00000000  0.50000000  0.38412125
   0.00000000  0.00000000  0.06361964
   0.00000000  0.00000000  0.19085893
   0.00000000  0.00000000  0.32096111
   0.00000000  0.00000000  0.44522408
   0.50000000  0.50000000  0.52438687
Direct configuration=     4
   0.50000000  0.50000000  0.06361964
   0.50000000  0.50000000  0.19085893
   0.50000000  0.50000000  0.32066180
   0.50000000  0.50000000  0.44713714
   0.00000000  0.00000000  0.00000000
   0.00000000  0.00000000  0.12723929
   0.00000000  0.00000000  0.25599865
   0.00000000  0.00000000  0.38535280
   0.50000000  0.00000000  0.00000000
   0.50000000  0.00000000  0.12723929
   0.50000000  0.00000000  0.25581633
   0.50000000  0.00000000  0.38402139
   0.00000000  0.50000000  0.00000000
   0.00000000  0.50000000  0.12723929
   0.00000000  0.50000000  0.25581633
   0.00000000  0.50000000  0.38402139
   0.00000000  0.00000000  0.06361964
   0.00000000  0.00000000  0.19085893
   0.00000000  0.00000000  0.32098109
   0.00000000  0.00000000  0.44515813
   0.50000000  0.50000000  0.52426258
Direct configuration=     5
   0.50000000  0.50000000  0.06361964
   0.50000000  0.50000000  0.19085893
   0.50000000  0.50000000  0.32071532
   0.50000000  0.50000000  0.44811204
   0.00000000  0.00000000  0.00000000
   0.00000000  0.00000000  0.12723929
   0.00000000  0.00000000  0.25623037
   0.00000000  0.00000000  0.38497159
   0.50000000  0.00000000  0.00000000
   0.50000000  0.00000000  0.12723929
   0.50000000  0.00000000  0.25571613
   0.50000000  0.00000000  0.38382485
   0.00000000  0.50000000  0.00000000
   0.00000000  0.50000000  0.12723929
   0.00000000  0.50000000  0.25571613
   0.00000000  0.50000000  0.38382485
   0.00000000  0.00000000  0.06361964
   0.00000000  0.00000000  0.19085893
   0.00000000  0.00000000  0.32102041
   0.00000000  0.00000000  0.44502832
   0.50000000  0.50000000  0.52401798
Direct configuration=     6
   0.50000000  0.50000000  0.06361964
   0.50000000  0.50000000  0.19085893
   0.50000000  0.50000000  0.32068137
   0.50000000  0.50000000  0.44749356
   0.00000000  0.00000000  0.00000000
   0.00000000  0.00000000  0.12723929
   0.00000000  0.00000000  0.25608337
   0.00000000  0.00000000  0.38521343
   0.50000000  0.00000000  0.00000000
   0.50000000  0.00000000  0.12723929
   0.50000000  0.00000000  0.25577970
   0.50000000  0.00000000  0.38394954
   0.00000000  0.50000000  0.00000000
   0.00000000  0.50000000  0.12723929
   0.00000000  0.50000000  0.25577970
   0.00000000  0.50000000  0.38394954
   0.00000000  0.00000000  0.06361964
   0.00000000  0.00000000  0.19085893
   0.00000000  0.00000000  0.32099546
   0.00000000  0.00000000  0.44511067
   0.50000000  0.50000000  0.52417316
Direct configuration=     7
   0.50000000  0.50000000  0.06361964
   0.50000000  0.50000000  0.19085893
   0.50000000  0.50000000  0.32066862
   0.50000000  0.50000000  0.44726137
   0.00000000  0.00000000  0.00000000
   0.00000000  0.00000000  0.12723929
   0.00000000  0.00000000  0.25602818
   0.00000000  0.00000000  0.38530423
   0.50000000  0.00000000  0.00000000
   0.50000000  0.00000000  0.12723929
   0.50000000  0.00000000  0.25580357
   0.50000000  0.00000000  0.38399634
   0.00000000  0.50000000  0.00000000
   0.00000000  0.50000000  0.12723929
   0.00000000  0.50000000  0.25580357
   0.00000000  0.50000000  0.38399634
   0.00000000  0.00000000  0.06361964
   0.00000000  0.00000000  0.19085893
   0.00000000  0.00000000  0.32098610
   0.00000000  0.00000000  0.44514159
   0.50000000  0.50000000  0.52423141
Direct configuration=     8
   0.50000000  0.50000000  0.06361964
   0.50000000  0.50000000  0.19085893
   0.50000000  0.50000000  0.32066553
   0.50000000  0.50000000  0.44720516
   0.00000000  0.00000000  0.00000000
   0.00000000  0.00000000  0.12723929
   0.00000000  0.00000000  0.25601482
   0.00000000  0.00000000  0.38532620
   0.50000000  0.00000000  0.00000000
   0.50000000  0.00000000  0.12723929
   0.50000000  0.00000000  0.25580934
   0.50000000  0.00000000  0.38400768
   0.00000000  0.50000000  0.00000000
   0.00000000  0.50000000  0.12723929
   0.00000000  0.50000000  0.25580934
   0.00000000  0.50000000  0.38400768
   0.00000000  0.00000000  0.06361964
   0.00000000  0.00000000  0.19085893
   0.00000000  0.00000000  0.32098383
   0.00000000  0.00000000  0.44514907
   0.50000000  0.50000000  0.52424552
Direct configuration=     9
   0.50000000  0.50000000  0.06361964
   0.50000000  0.50000000  0.19085893
   0.50000000  0.50000000  0.32066297
   0.50000000  0.50000000  0.44715837
   0.00000000  0.00000000  0.00000000
   0.00000000  0.00000000  0.12723929
   0.00000000  0.00000000  0.25600370
   0.00000000  0.00000000  0.38534450
   0.50000000  0.00000000  0.00000000
   0.50000000  0.00000000  0.12723929
   0.50000000  0.00000000  0.25581415
   0.50000000  0.00000000  0.38401711
   0.00000000  0.50000000  0.00000000
   0.00000000  0.50000000  0.12723929
   0.00000000  0.50000000  0.25581415
   0.00000000  0.50000000  0.38401711
   0.00000000  0.00000000  0.06361964
   0.00000000  0.00000000  0.19085893
   0.00000000  0.00000000  0.32098195
   0.00000000  0.00000000  0.44515530
   0.50000000  0.50000000  0.52425726
Direct configuration=    10
   0.50000000  0.50000000  0.06361964
   0.50000000  0.50000000  0.19085893
   0.50000000  0.50000000  0.32066228
   0.50000000  0.50000000  0.44714590
   0.00000000  0.00000000  0.00000000
   0.00000000  0.00000000  0.12723929
   0.00000000  0.00000000  0.25600074
   0.00000000  0.00000000  0.38534938
   0.50000000  0.00000000  0.00000000
   0.50000000  0.00000000  0.12723929
   0.50000000  0.00000000  0.25581543
   0.50000000  0.00000000  0.38401962
   0.00000000  0.50000000  0.00000000
   0.00000000  0.50000000  0.12723929
   0.00000000  0.50000000  0.25581543
   0.00000000  0.50000000  0.38401962
   0.00000000  0.00000000  0.06361964
   0.00000000  0.00000000  0.19085893
   0.00000000  0.00000000  0.32098144
   0.00000000  0.00000000  0.44515696
   0.50000000  0.50000000  0.52426038
Direct configuration=    11
   0.50000000  0.50000000  0.06361964
   0.50000000  0.50000000  0.19085893
   0.50000000  0.50000000  0.32066196
   0.50000000  0.50000000  0.44714008
   0.00000000  0.00000000  0.00000000
   0.00000000  0.00000000  0.12723929
   0.00000000  0.00000000  0.25599935
   0.00000000  0.00000000  0.38535165
   0.50000000  0.00000000  0.00000000
   0.50000000  0.00000000  0.12723929
   0.50000000  0.00000000  0.25581603
   0.50000000  0.00000000  0.38402080
   0.00000000  0.50000000  0.00000000
   0.00000000  0.50000000  0.12723929
   0.00000000  0.50000000  0.25581603
   0.00000000  0.50000000  0.38402080
   0.00000000  0.00000000  0.06361964
   0.00000000  0.00000000  0.19085893
   0.00000000  0.00000000  0.32098121
   0.00000000  0.00000000  0.44515774
   0.50000000  0.50000000  0.52426185
Direct configuration=    12
   0.50000000  0.50000000  0.06361964
   0.50000000  0.50000000  0.19085893
   0.50000000  0.50000000  0.32066188
   0.50000000  0.50000000  0.44713868
   0.00000000  0.00000000  0.00000000
   0.00000000  0.00000000  0.12723929
   0.00000000  0.00000000  0.25599902
   0.00000000  0.00000000  0.38535220
   0.50000000  0.00000000  0.00000000
   0.50000000  0.00000000  0.12723929
   0.50000000  0.00000000  0.25581618
   0.50000000  0.00000000  0.38402108
   0.00000000  0.50000000  0.00000000
   0.00000000  0.50000000  0.12723929
   0.00000000  0.50000000  0.25581618
   0.00000000  0.50000000  0.38402108
   0.00000000  0.00000000  0.06361964
   0.00000000  0.00000000  0.19085893
   0.00000000  0.00000000  0.32098115
   0.00000000  0.00000000  0.44515792
   0.50000000  0.50000000  0.52426220
Direct configuration=    13
   0.50000000  0.50000000  0.06361964
   0.50000000  0.50000000  0.19085893
   0.50000000  0.50000000  0.32066184
   0.50000000  0.50000000  0.44713782
   0.00000000  0.00000000  0.00000000
   0.00000000  0.00000000  0.12723929
   0.00000000  0.00000000  0.25599882
   0.00000000  0.00000000  0.38535253
   0.50000000  0.00000000  0.00000000
   0.50000000  0.00000000  0.12723929
   0.50000000  0.00000000  0.25581626
   0.50000000  0.00000000  0.38402125
   0.00000000  0.50000000  0.00000000
   0.00000000  0.50000000  0.12723929
   0.00000000  0.50000000  0.25581626
   0.00000000  0.50000000  0.38402125
   0.00000000  0.00000000  0.06361964
   0.00000000  0.00000000  0.19085893
   0.00000000  0.00000000  0.32098112
   0.00000000  0.00000000  0.44515804
   0.50000000  0.50000000  0.52426241
Direct configuration=    14
   0.50000000  0.50000000  0.06361964
   0.50000000  0.50000000  0.19085893
   0.50000000  0.50000000  0.32066182
   0.50000000  0.50000000  0.44713744
   0.00000000  0.00000000  0.00000000
   0.00000000  0.00000000  0.12723929
   0.00000000  0.00000000  0.25599873
   0.00000000  0.00000000  0.38535268
   0.50000000  0.00000000  0.00000000
   0.50000000  0.00000000  0.12723929
   0.50000000  0.00000000  0.25581630
   0.50000000  0.00000000  0.38402133
   0.00000000  0.50000000  0.00000000
   0.00000000  0.50000000  0.12723929
   0.00000000  0.50000000  0.25581630
   0.00000000  0.50000000  0.38402133
   0.00000000  0.00000000  0.06361964
   0.00000000  0.00000000  0.19085893
   0.00000000  0.00000000  0.32098110
   0.00000000  0.00000000  0.44515809
   0.50000000  0.50000000  0.52426251
Direct configuration=    15
   0.50000000  0.50000000  0.06361964
   0.50000000  0.50000000  0.19085893
   0.50000000  0.50000000  0.32066181
   0.50000000  0.50000000  0.44713728
   0.00000000  0.00000000  0.00000000
   0.00000000  0.00000000  0.12723929
   0.00000000  0.00000000  0.25599869
   0.00000000  0.00000000  0.38535275
   0.50000000  0.00000000  0.00000000
   0.50000000  0.00000000  0.12723929
   0.50000000  0.00000000  0.25581632
   0.50000000  0.00000000  0.38402136
   0.00000000  0.50000000  0.00000000
   0.00000000  0.50000000  0.12723929
   0.00000000  0.50000000  0.25581632
   0.00000000  0.50000000  0.38402136
   0.00000000  0.00000000  0.06361964
   0.00000000  0.00000000  0.19085893
   0.00000000  0.00000000  0.32098110
   0.00000000  0.00000000  0.44515811
   0.50000000  0.50000000  0.52426255
Direct configuration=    16
   0.50000000  0.50000000  0.06361964
   0.50000000  0.50000000  0.19085893
   0.50000000  0.50000000  0.32066180
   0.50000000  0.50000000  0.44713719
   0.00000000  0.00000000  0.00000000
   0.00000000  0.00000000  0.12723929
   0.00000000  0.00000000  0.25599867
   0.00000000  0.00000000  0.38535278
   0.50000000  0.00000000  0.00000000
   0.50000000  0.00000000  0.12723929
   0.50000000  0.00000000  0.25581633
   0.50000000  0.00000000  0.38402138
   0.00000000  0.50000000  0.00000000
   0.00000000  0.50000000  0.12723929
   0.00000000  0.50000000  0.25581633
   0.00000000  0.50000000  0.38402138
   0.00000000  0.00000000  0.06361964
   0.00000000  0.00000000  0.19085893
   0.00000000  0.00000000  0.32098109
   0.00000000  0.00000000  0.44515812
   0.50000000  0.50000000  0.52426257
Direct configuration=    17
   0.50000000  0.50000000  0.06361964
   0.50000000  0.50000000  0.19085893
   0.50000000  0.50000000  0.32066180
   0.50000000  0.50000000  0.44713717
   0.00000000  0.00000000  0.00000000
   0.00000000  0.00000000  0.12723929
   0.00000000  0.00000000  0.25599866
   0.00000000  0.00000000  0.38535279
   0.50000000  0.00000000  0.00000000
   0.50000000  0.00000000  0.12723929
   0.50000000  0.00000000  0.25581633
   0.50000000  0.00000000  0.38402138
   0.00000000  0.50000000  0.00000000
   0.00000000  0.50000000  0.12723929
   0.00000000  0.50000000  0.25581633
   0.00000000  0.50000000  0.38402138
   0.00000000  0.00000000  0.06361964
   0.00000000  0.00000000  0.19085893
   0.00000000  0.00000000  0.32098109
   0.00000000  0.00000000  0.44515812
   0.50000000  0.50000000  0.52426258
Direct configuration=    18
   0.50000000  0.50000000  0.06361964
   0.50000000  0.50000000  0.19085893
   0.50000000  0.50000000  0.32066180
   0.50000000  0.50000000  0.44713715
   0.00000000  0.00000000  0.00000000
   0.00000000  0.00000000  0.12723929
   0.00000000  0.00000000  0.25599866
   0.00000000  0.00000000  0.38535280
   0.50000000  0.00000000  0.00000000
   0.50000000  0.00000000  0.12723929
   0.50000000  0.00000000  0.25581633
   0.50000000  0.00000000  0.38402139
   0.00000000  0.50000000  0.00000000
   0.00000000  0.50000000  0.12723929
   0.00000000  0.50000000  0.25581633
   0.00000000  0.50000000  0.38402139
   0.00000000  0.00000000  0.06361964
   0.00000000  0.00000000  0.19085893
   0.00000000  0.00000000  0.32098109
   0.00000000  0.00000000  0.44515813
   0.50000000  0.50000000  0.52426258
Direct configuration=    19
   0.50000000  0.50000000  0.06361964
   0.50000000  0.50000000  0.19085893
   0.50000000  0.50000000  0.32066180
   0.50000000  0.50000000  0.44713714
   0.00000000  0.00000000  0.00000000
   0.00000000  0.00000000  0.12723929
   0.00000000  0.00000000  0.25599865
   0.00000000  0.00000000  0.38535280
   0.50000000  0.00000000  0.00000000
   0.50000000  0.00000000  0.12723929
   0.50000000  0.00000000  0.25581633
   0.50000000  0.00000000  0.38402139
   0.00000000  0.50000000  0.00000000
   0.00000000  0.50000000  0.12723929
   0.00000000  0.50000000  0.25581633
   0.00000000  0.50000000  0.38402139
   0.00000000  0.00000000  0.06361964
   0.00000000  0.00000000  0.19085893
   0.00000000  0.00000000  0.32098109
   0.00000000  0.00000000  0.44515813
   0.50000000  0.50000000  0.52426258
Direct configuration=    20
   0.50000000  0.50000000  0.06361964
   0.50000000  0.50000000  0.19085893
   0.50000000  0.50000000  0.32066180
   0.50000000  0.50000000  0.44713714
   0.00000000  0.00000000  0.00000000
   0.00000000  0.00000000  0.12723929
   0.00000000  0.00000000  0.25599865
   0.00000000  0.00000000  0.38535280
   0.50000000  0.00000000  0.00000000
   0.50000000  0.00000000  0.12723929
   0.50000000  0.00000000  0.25581633
   0.50000000  0.00000000  0.38402139
   0.00000000  0.50000000  0.00000000
   0.00000000  0.50000000  0.12723929
   0.00000000  0.50000000  0.25581633
   0.00000000  0.50000000  0.38402139
   0.00000000  0.00000000  0.06361964
   0.00000000  0.00000000  0.19085893
   0.00000000  0.00000000  0.32098109
   0.00000000  0.00000000  0.44515813
   0.50000000  0.50000000  0.52426258
Direct configuration=    21
   0.50000000  0.50000000  0.06361964
   0.50000000  0.50000000  0.19085893
   0.50000000  0.50000000  0.32066180
   0.50000000  0.50000000  0.44713714
   0.00000000  0.00000000  0.00000000
   0.00000000  0.00000000  0.12723929
   0.00000000  0.00000000  0.25599865
   0.00000000  0.00000000  0.38535280
   0.50000000  0.00000000  0.00000000
   0.50000000  0.00000000  0.12723929
   0.50000000  0.00000000  0.25581633
   0.50000000  0.00000000  0.38402139
   0.00000000  0.50000000  0.00000000
   0.00000000  0.50000000  0.12723929
   0.00000000  0.50000000  0.25581633
   0.00000000  0.50000000  0.38402139
   0.00000000  0.00000000  0.06361964
   0.00000000  0.00000000  0.19085893
   0.00000000  0.00000000  0.32098109
   0.00000000  0.00000000  0.44515813
   0.50000000  0.50000000  0.52426258
Direct configuration=    22
   0.50000000  0.50000000  0.06361964
   0.50000000  0.50000000  0.19085893
   0.50000000  0.50000000  0.32063460
   0.50000000  0.50000000  0.44664178
   0.00000000  0.00000000  0.00000000
   0.00000000  0.00000000  0.12723929
   0.00000000  0.00000000  0.25588092
   0.00000000  0.00000000  0.38554650
   0.50000000  0.00000000  0.00000000
   0.50000000  0.00000000  0.12723929
   0.50000000  0.00000000  0.25586725
   0.50000000  0.00000000  0.38412125
   0.00000000  0.50000000  0.00000000
   0.00000000  0.50000000  0.12723929
   0.00000000  0.50000000  0.25586725
   0.00000000  0.50000000  0.38412125
   0.00000000  0.00000000  0.06361964
   0.00000000  0.00000000  0.19085893
   0.00000000  0.00000000  0.32096111
   0.00000000  0.00000000  0.44522408
   0.50000000  0.50000000  0.52438687
Direct configuration=    23
   0.50000000  0.50000000  0.06361964
   0.50000000  0.50000000  0.19085893
   0.50000000  0.50000000  0.32064893
   0.50000000  0.50000000  0.44675252
   0.00000000  0.00000000  0.00000000
   0.00000000  0.00000000  0.12723929
   0.00000000  0.00000000  0.25592948
   0.00000000  0.00000000  0.38539128
   0.50000000  0.00000000  0.00000000
   0.50000000  0.00000000  0.12723929
   0.50000000  0.00000000  0.25584394
   0.50000000  0.00000000  0.38409865
   0.00000000  0.50000000  0.00000000
   0.00000000  0.50000000  0.12723929
   0.00000000  0.50000000  0.25584394
   0.00000000  0.50000000  0.38409865
   0.00000000  0.00000000  0.06361964
   0.00000000  0.00000000  0.19085893
   0.00000000  0.00000000  0.32099742
   0.00000000  0.00000000  0.44526949
   0.50000000  0.50000000  0.52437749
Direct configuration=    24
   0.50000000  0.50000000  0.06361964
   0.50000000  0.50000000  0.19085893
   0.50000000  0.50000000  0.32065296
   0.50000000  0.50000000  0.44678368
   0.00000000  0.00000000  0.00000000
   0.00000000  0.00000000  0.12723929
   0.00000000  0.00000000  0.25594315
   0.00000000  0.00000000  0.38534759
   0.50000000  0.00000000  0.00000000
   0.50000000  0.00000000  0.12723929
   0.50000000  0.00000000  0.25583739
   0.50000000  0.00000000  0.38409229
   0.00000000  0.50000000  0.00000000
   0.00000000  0.50000000  0.12723929
   0.00000000  0.50000000  0.25583739
   0.00000000  0.50000000  0.38409229
   0.00000000  0.00000000  0.06361964
   0.00000000  0.00000000  0.19085893
   0.00000000  0.00000000  0.32100763
   0.00000000  0.00000000  0.44528227
   0.50000000  0.50000000  0.52437485
Direct configuration=    25
   0.50000000  0.50000000  0.06361964
   0.50000000  0.50000000  0.19085893
   0.50000000  0.50000000  0.32065839
   0.50000000  0.50000000  0.44673052
   0.00000000  0.00000000  0.00000000
   0.00000000  0.00000000  0.12723929
   0.00000000  0.00000000  0.25597100
   0.00000000  0.00000000  0.38520648
   0.50000000  0.00000000  0.00000000
   0.50000000  0.00000000  0.12723929
   0.50000000  0.00000000  0.25582150
   0.50000000  0.00000000  0.38408773
   0.00000000  0.50000000  0.00000000
   0.00000000  0.50000000  0.12723929
   0.00000000  0.50000000  0.25582150
   0.00000000  0.50000000  0.38408773
   0.00000000  0.00000000  0.06361964
   0.00000000  0.00000000  0.19085893
   0.00000000  0.00000000  0.32105003
   0.00000000  0.00000000  0.44534734
   0.50000000  0.50000000  0.52445964
Direct configuration=    26
   0.50000000  0.50000000  0.06361964
   0.50000000  0.50000000  0.19085893
   0.50000000  0.50000000  0.32066242
   0.50000000  0.50000000  0.44669118
   0.00000000  0.00000000  0.00000000
   0.00000000  0.00000000  0.12723929
   0.00000000  0.00000000  0.25599161
   0.00000000  0.00000000  0.38510204
   0.50000000  0.00000000  0.00000000
   0.50000000  0.00000000  0.12723929
   0.50000000  0.00000000  0.25580975
   0.50000000  0.00000000  0.38408435
   0.00000000  0.50000000  0.00000000
   0.00000000  0.50000000  0.12723929
   0.00000000  0.50000000  0.25580975
   0.00000000  0.50000000  0.38408435
   0.00000000  0.00000000  0.06361964
   0.00000000  0.00000000  0.19085893
   0.00000000  0.00000000  0.32108141
   0.00000000  0.00000000  0.44539550
   0.50000000  0.50000000  0.52452240
Direct configuration=    27
   0.50000000  0.50000000  0.06361964
   0.50000000  0.50000000  0.19085893
   0.50000000  0.50000000  0.32067047
   0.50000000  0.50000000  0.44661249
   0.00000000  0.00000000  0.00000000
   0.00000000  0.00000000  0.12723929
   0.00000000  0.00000000  0.25603284
   0.00000000  0.00000000  0.38489317
   0.50000000  0.00000000  0.00000000
   0.50000000  0.00000000  0.12723929
   0.50000000  0.00000000  0.25578623
   0.50000000  0.00000000  0.38407759
   0.00000000  0.50000000  0.00000000
   0.00000000  0.50000000  0.12723929
   0.00000000  0.50000000  0.25578623
   0.00000000  0.50000000  0.38407759
   0.00000000  0.00000000  0.06361964
   0.00000000  0.00000000  0.19085893
   0.00000000  0.00000000  0.32114417
   0.00000000  0.00000000  0.44549182
   0.50000000  0.50000000  0.52464791
Direct configuration=    28
   0.50000000  0.50000000  0.06361964
   0.50000000  0.50000000  0.19085893
   0.50000000  0.50000000  0.32066782
   0.50000000  0.50000000  0.44663842
   0.00000000  0.00000000  0.00000000
   0.00000000  0.00000000  0.12723929
   0.00000000  0.00000000  0.25601925
   0.00000000  0.00000000  0.38496199
   0.50000000  0.00000000  0.00000000
   0.50000000  0.00000000  0.12723929
   0.50000000  0.00000000  0.25579398
   0.50000000  0.00000000  0.38407982
   0.00000000  0.50000000  0.00000000
   0.00000000  0.50000000  0.12723929
   0.00000000  0.50000000  0.25579398
   0.00000000  0.50000000  0.38407982
   0.00000000  0.00000000  0.06361964
   0.00000000  0.00000000  0.19085893
   0.00000000  0.00000000  0.32112349
   0.00000000  0.00000000  0.44546009
   0.50000000  0.50000000  0.52460656
Direct configuration=    29
   0.50000000  0.50000000  0.06361964
   0.50000000  0.50000000  0.19085893
   0.50000000  0.50000000  0.32066110
   0.50000000  0.50000000  0.44658758
   0.00000000  0.00000000  0.00000000
   0.00000000  0.00000000  0.12723929
   0.00000000  0.00000000  0.25599638
   0.00000000  0.00000000  0.38500525
   0.50000000  0.00000000  0.00000000
   0.50000000  0.00000000  0.12723929
   0.50000000  0.00000000  0.25579935
   0.50000000  0.00000000  0.38408299
   0.00000000  0.50000000  0.00000000
   0.00000000  0.50000000  0.12723929
   0.00000000  0.50000000  0.25579935
   0.00000000  0.50000000  0.38408299
   0.00000000  0.00000000  0.06361964
   0.00000000  0.00000000  0.19085893
   0.00000000  0.00000000  0.32111925
   0.00000000  0.00000000  0.44543430
   0.50000000  0.50000000  0.52464564
Direct configuration=    30
   0.50000000  0.50000000  0.06361964
   0.50000000  0.50000000  0.19085893
   0.50000000  0.50000000  0.32064097
   0.50000000  0.50000000  0.44643507
   0.00000000  0.00000000  0.00000000
   0.00000000  0.00000000  0.12723929
   0.00000000  0.00000000  0.25592775
   0.00000000  0.00000000  0.38513501
   0.50000000  0.00000000  0.00000000
   0.50000000  0.00000000  0.12723929
   0.50000000  0.00000000  0.25581547
   0.50000000  0.00000000  0.38409250
   0.00000000  0.50000000  0.00000000
   0.00000000  0.50000000  0.12723929
   0.00000000  0.50000000  0.25581547
   0.00000000  0.50000000  0.38409250
   0.00000000  0.00000000  0.06361964
   0.00000000  0.00000000  0.19085893
   0.00000000  0.00000000  0.32110651
   0.00000000  0.00000000  0.44535693
   0.50000000  0.50000000  0.52476289
Direct configuration=    31
   0.50000000  0.50000000  0.06361964
   0.50000000  0.50000000  0.19085893
   0.50000000  0.50000000  0.32060070
   0.50000000  0.50000000  0.44613006
   0.00000000  0.00000000  0.00000000
   0.00000000  0.00000000  0.12723929
   0.00000000  0.00000000  0.25579050
   0.00000000  0.00000000  0.38539454
   0.50000000  0.00000000  0.00000000
   0.50000000  0.00000000  0.12723929
   0.50000000  0.00000000  0.25584770
   0.50000000  0.00000000  0.38411151
   0.00000000  0.50000000  0.00000000
   0.00000000  0.50000000  0.12723929
   0.00000000  0.50000000  0.25584770
   0.00000000  0.50000000  0.38411151
   0.00000000  0.00000000  0.06361964
   0.00000000  0.00000000  0.19085893
   0.00000000  0.00000000  0.32108104
   0.00000000  0.00000000  0.44520219
   0.50000000  0.50000000  0.52499740
Direct configuration=    32
   0.50000000  0.50000000  0.06361964
   0.50000000  0.50000000  0.19085893
   0.50000000  0.50000000  0.32063010
   0.50000000  0.50000000  0.44635277
   0.00000000  0.00000000  0.00000000
   0.00000000  0.00000000  0.12723929
   0.00000000  0.00000000  0.25589072
   0.00000000  0.00000000  0.38520504
   0.50000000  0.00000000  0.00000000
   0.50000000  0.00000000  0.12723929
   0.50000000  0.00000000  0.25582416
   0.50000000  0.00000000  0.38409763
   0.00000000  0.50000000  0.00000000
   0.00000000  0.50000000  0.12723929
   0.00000000  0.50000000  0.25582416
   0.00000000  0.50000000  0.38409763
   0.00000000  0.00000000  0.06361964
   0.00000000  0.00000000  0.19085893
   0.00000000  0.00000000  0.32109964
   0.00000000  0.00000000  0.44531518
   0.50000000  0.50000000  0.52482617
Direct configuration=    33
   0.50000000  0.50000000  0.06361964
   0.50000000  0.50000000  0.19085893
   0.50000000  0.50000000  0.32061482
   0.50000000  0.50000000  0.44625422
   0.00000000  0.00000000  0.00000000
   0.00000000  0.00000000  0.12723929
   0.00000000  0.00000000  0.25588179
   0.00000000  0.00000000  0.38517929
   0.50000000  0.00000000  0.00000000
   0.50000000  0.00000000  0.12723929
   0.50000000  0.00000000  0.25582400
   0.50000000  0.00000000  0.38410822
   0.00000000  0.50000000  0.00000000
   0.00000000  0.50000000  0.12723929
   0.00000000  0.50000000  0.25582400
   0.00000000  0.50000000  0.38410822
   0.00000000  0.00000000  0.06361964
   0.00000000  0.00000000  0.19085893
   0.00000000  0.00000000  0.32110922
   0.00000000  0.00000000  0.44532981
   0.50000000  0.50000000  0.52491078
Direct configuration=    34
   0.50000000  0.50000000  0.06361964
   0.50000000  0.50000000  0.19085893
   0.50000000  0.50000000  0.32056895
   0.50000000  0.50000000  0.44595858
   0.00000000  0.00000000  0.00000000
   0.00000000  0.00000000  0.12723929
   0.00000000  0.00000000  0.25585502
   0.00000000  0.00000000  0.38510202
   0.50000000  0.00000000  0.00000000
   0.50000000  0.00000000  0.12723929
   0.50000000  0.00000000  0.25582350
   0.50000000  0.00000000  0.38414001
   0.00000000  0.50000000  0.00000000
   0.00000000  0.50000000  0.12723929
   0.00000000  0.50000000  0.25582350
   0.00000000  0.50000000  0.38414001
   0.00000000  0.00000000  0.06361964
   0.00000000  0.00000000  0.19085893
   0.00000000  0.00000000  0.32113798
   0.00000000  0.00000000  0.44537371
   0.50000000  0.50000000  0.52516462
Direct configuration=    35
   0.50000000  0.50000000  0.06361964
   0.50000000  0.50000000  0.19085893
   0.50000000  0.50000000  0.32057469
   0.50000000  0.50000000  0.44599560
   0.00000000  0.00000000  0.00000000
   0.00000000  0.00000000  0.12723929
   0.00000000  0.00000000  0.25585837
   0.00000000  0.00000000  0.38511170
   0.50000000  0.00000000  0.00000000
   0.50000000  0.00000000  0.12723929
   0.50000000  0.00000000  0.25582356
   0.50000000  0.00000000  0.38413603
   0.00000000  0.50000000  0.00000000
   0.00000000  0.50000000  0.12723929
   0.00000000  0.50000000  0.25582356
   0.00000000  0.50000000  0.38413603
   0.00000000  0.00000000  0.06361964
   0.00000000  0.00000000  0.19085893
   0.00000000  0.00000000  0.32113438
   0.00000000  0.00000000  0.44536822
   0.50000000  0.50000000  0.52513283
Direct configuration=    36
   0.50000000  0.50000000  0.06361964
   0.50000000  0.50000000  0.19085893
   0.50000000  0.50000000  0.32057143
   0.50000000  0.50000000  0.44597453
   0.00000000  0.00000000  0.00000000
   0.00000000  0.00000000  0.12723929
   0.00000000  0.00000000  0.25585647
   0.00000000  0.00000000  0.38510619
   0.50000000  0.00000000  0.00000000
   0.50000000  0.00000000  0.12723929
   0.50000000  0.00000000  0.25582353
   0.50000000  0.00000000  0.38413830
   0.00000000  0.50000000  0.00000000
   0.00000000  0.50000000  0.12723929
   0.00000000  0.50000000  0.25582353
   0.00000000  0.50000000  0.38413830
   0.00000000  0.00000000  0.06361964
   0.00000000  0.00000000  0.19085893
   0.00000000  0.00000000  0.32113643
   0.00000000  0.00000000  0.44537134
   0.50000000  0.50000000  0.52515093
Direct configuration=    37
   0.50000000  0.50000000  0.06361964