unknown system                          
           1
     3.886808    0.000000    0.000000
     0.000000    3.886808    0.000000
     0.000000    0.000000   30.547233
   Sr   Fe   O 
   4   4  13
Direct configuration=     1
   0.50000000  0.50000000  0.06361964
   0.50000000  0.50000000  0.19085893
   0.50000000  0.50000000  0.31852341
   0.50000000  0.50000000  0.44076390
   0.00000000  0.00000000  0.00000000
   0.00000000  0.00000000  0.12723929
   0.00000000  0.00000000  0.25556037
   0.00000000  0.00000000  0.38494139
   0.50000000  0.00000000  0.00000000
   0.50000000  0.00000000  0.12723929
   0.50000000  0.00000000  0.25524104
   0.50000000  0.00000000  0.38439581
   0.00000000  0.50000000  0.00000000
   0.00000000  0.50000000  0.12723929
   0.00000000  0.50000000  0.25524104
   0.00000000  0.50000000  0.38439581
   0.00000000  0.00000000  0.06361964
   0.00000000  0.00000000  0.19085893
   0.00000000  0.00000000  0.32020575
   0.00000000  0.00000000  0.44865975
   0.50000000  0.50000000  0.54865975
Direct configuration=     2
   0.50000000  0.50000000  0.06361964
   0.50000000  0.50000000  0.19085893
   0.50000000  0.50000000  0.31807531
   0.50000000  0.50000000  0.44233103
   0.00000000  0.00000000  0.00000000
   0.00000000  0.00000000  0.12723929
   0.00000000  0.00000000  0.25612596
   0.00000000  0.00000000  0.38563479
   0.50000000  0.00000000  0.00000000
   0.50000000  0.00000000  0.12723929
   0.50000000  0.00000000  0.25549603
   0.50000000  0.00000000  0.38466613
   0.00000000  0.50000000  0.00000000
   0.00000000  0.50000000  0.12723929
   0.00000000  0.50000000  0.25549603
   0.00000000  0.50000000  0.38466613
   0.00000000  0.00000000  0.06361964
   0.00000000  0.00000000  0.19085893
   0.00000000  0.00000000  0.31955072
   0.00000000  0.00000000  0.44893537
   0.50000000  0.50000000  0.54372028
Direct configuration=     3
   0.50000000  0.50000000  0.06361964
   0.50000000  0.50000000  0.19085893
   0.50000000  0.50000000  0.31807326
   0.50000000  0.50000000  0.44233819
   0.00000000  0.00000000  0.00000000
   0.00000000  0.00000000  0.12723929
   0.00000000  0.00000000  0.25612854
   0.00000000  0.00000000  0.38563795
   0.50000000  0.00000000  0.00000000
   0.50000000  0.00000000  0.12723929
   0.50000000  0.00000000  0.25549720
   0.50000000  0.00000000  0.38466736
   0.00000000  0.50000000  0.00000000
   0.00000000  0.50000000  0.12723929
   0.00000000  0.50000000  0.25549720
   0.00000000  0.50000000  0.38466736
   0.00000000  0.00000000  0.06361964
   0.00000000  0.00000000  0.19085893
   0.00000000  0.00000000  0.31954773
   0.00000000  0.00000000  0.44893663
   0.50000000  0.50000000  0.54369771
Direct configuration=     4
   0.50000000  0.50000000  0.06361964
   0.50000000  0.50000000  0.19085893
   0.50000000  0.50000000  0.31806917
   0.50000000  0.50000000  0.44235251
   0.00000000  0.00000000  0.00000000
   0.00000000  0.00000000  0.12723929
   0.00000000  0.00000000  0.25613371
   0.00000000  0.00000000  0.38564429
   0.50000000  0.00000000  0.00000000
   0.50000000  0.00000000  0.12723929
   0.50000000  0.00000000  0.25549953
   0.50000000  0.00000000  0.38466983
   0.00000000  0.50000000  0.00000000
   0.00000000  0.50000000  0.12723929
   0.00000000  0.50000000  0.25549953
   0.00000000  0.50000000  0.38466983
   0.00000000  0.00000000  0.06361964
   0.00000000  0.00000000  0.19085893
   0.00000000  0.00000000  0.31954174
   0.00000000  0.00000000  0.44893915
   0.50000000  0.50000000  0.54365258
Direct configuration=     5
   0.50000000  0.50000000  0.06361964
   0.50000000  0.50000000  0.19085893
   0.50000000  0.50000000  0.31806098
   0.50000000  0.50000000  0.44238115
   0.00000000  0.00000000  0.00000000
   0.00000000  0.00000000  0.12723929
   0.00000000  0.00000000  0.25614404
   0.00000000  0.00000000  0.38565696
   0.50000000  0.00000000  0.00000000
   0.50000000  0.00000000  0.12723929
   0.50000000  0.00000000  0.25550419
   0.50000000  0.00000000  0.38467477
   0.00000000  0.50000000  0.00000000
   0.00000000  0.50000000  0.12723929
   0.00000000  0.50000000  0.25550419
   0.00000000  0.50000000  0.38467477
   0.00000000  0.00000000  0.06361964
   0.00000000  0.00000000  0.19085893
   0.00000000  0.00000000  0.31952977
   0.00000000  0.00000000  0.44894418
   0.50000000  0.50000000  0.54356231
Direct configuration=     6
   0.50000000  0.50000000  0.06361964
   0.50000000  0.50000000  0.19085893
   0.50000000  0.50000000  0.31804460
   0.50000000  0.50000000  0.44243842
   0.00000000  0.00000000  0.00000000
   0.00000000  0.00000000  0.12723929
   0.00000000  0.00000000  0.25616472
   0.00000000  0.00000000  0.38568230
   0.50000000  0.00000000  0.00000000
   0.50000000  0.00000000  0.12723929
   0.50000000  0.00000000  0.25551351
   0.50000000  0.00000000  0.38468465
   0.00000000  0.50000000  0.00000000
   0.00000000  0.50000000  0.12723929
   0.00000000  0.50000000  0.25551351
   0.00000000  0.50000000  0.38468465
   0.00000000  0.00000000  0.06361964
   0.00000000  0.00000000  0.19085893
   0.00000000  0.00000000  0.31950583
   0.00000000  0.00000000  0.44895426
   0.50000000  0.50000000  0.54338178
Direct configuration=     7
   0.50000000  0.50000000  0.06361964
   0.50000000  0.50000000  0.19085893
   0.50000000  0.50000000  0.31801185
   0.50000000  0.50000000  0.44255298
   0.00000000  0.00000000  0.00000000
   0.00000000  0.00000000  0.12723929
   0.00000000  0.00000000  0.25620606
   0.00000000  0.00000000  0.38573299
   0.50000000  0.00000000  0.00000000
   0.50000000  0.00000000  0.12723929
   0.50000000  0.00000000  0.25553215
   0.50000000  0.00000000  0.38470441
   0.00000000  0.50000000  0.00000000
   0.00000000  0.50000000  0.12723929
   0.00000000  0.50000000  0.25553215
   0.00000000  0.50000000  0.38470441
   0.00000000  0.00000000  0.06361964
   0.00000000  0.00000000  0.19085893
   0.00000000  0.00000000  0.31945795
   0.00000000  0.00000000  0.44897440
   0.50000000  0.50000000  0.54302071
Direct configuration=     8
   0.50000000  0.50000000  0.06361964
   0.50000000  0.50000000  0.19085893
   0.50000000  0.50000000  0.31794634
   0.50000000  0.50000000  0.44278209
   0.00000000  0.00000000  0.00000000
   0.00000000  0.00000000  0.12723929
   0.00000000  0.00000000  0.25628874
   0.00000000  0.00000000  0.38583436
   0.50000000  0.00000000  0.00000000
   0.50000000  0.00000000  0.12723929
   0.50000000  0.00000000  0.25556943
   0.50000000  0.00000000  0.38474393
   0.00000000  0.50000000  0.00000000
   0.00000000  0.50000000  0.12723929
   0.00000000  0.50000000  0.25556943
   0.00000000  0.50000000  0.38474393
   0.00000000  0.00000000  0.06361964
   0.00000000  0.00000000  0.19085893
   0.00000000  0.00000000  0.31936219
   0.00000000  0.00000000  0.44901470
   0.50000000  0.50000000  0.54229858
Direct configuration=     9
   0.50000000  0.50000000  0.06361964
   0.50000000  0.50000000  0.19085893
   0.50000000  0.50000000  0.31781532
   0.50000000  0.50000000  0.44324030
   0.00000000  0.00000000  0.00000000
   0.00000000  0.00000000  0.12723929
   0.00000000  0.00000000  0.25645412
   0.00000000  0.00000000  0.38603710
   0.50000000  0.00000000  0.00000000
   0.50000000  0.00000000  0.12723929
   0.50000000  0.00000000  0.25564398
   0.50000000  0.00000000  0.38482297
   0.00000000  0.50000000  0.00000000
   0.00000000  0.50000000  0.12723929
   0.00000000  0.50000000  0.25564398
   0.00000000  0.50000000  0.38482297
   0.00000000  0.00000000  0.06361964
   0.00000000  0.00000000  0.19085893
   0.00000000  0.00000000  0.31917066
   0.00000000  0.00000000  0.44909529
   0.50000000  0.50000000  0.54085432
Direct configuration=    10
   0.50000000  0.50000000  0.06361964
   0.50000000  0.50000000  0.19085893
   0.50000000  0.50000000  0.31755328
   0.50000000  0.50000000  0.44415674
   0.00000000  0.00000000  0.00000000
   0.00000000  0.00000000  0.12723929
   0.00000000  0.00000000  0.25678486
   0.00000000  0.00000000  0.38644259
   0.50000000  0.00000000  0.00000000
   0.50000000  0.00000000  0.12723929
   0.50000000  0.00000000  0.25579310
   0.50000000  0.00000000  0.38498105
   0.00000000  0.50000000  0.00000000
   0.00000000  0.50000000  0.12723929
   0.00000000  0.50000000  0.25579310
   0.00000000  0.50000000  0.38498105
   0.00000000  0.00000000  0.06361964
   0.00000000  0.00000000  0.19085893
   0.00000000  0.00000000  0.31878761
   0.00000000  0.00000000  0.44925647
   0.50000000  0.50000000  0.53796580
Direct configuration=    11
   0.50000000  0.50000000  0.06361964
   0.50000000  0.50000000  0.19085893
   0.50000000  0.50000000  0.31702921
   0.50000000  0.50000000  0.44598961
   0.00000000  0.00000000  0.00000000
   0.00000000  0.00000000  0.12723929
   0.00000000  0.00000000  0.25744635
   0.00000000  0.00000000  0.38725356
   0.50000000  0.00000000  0.00000000
   0.50000000  0.00000000  0.12723929
   0.50000000  0.00000000  0.25609133
   0.50000000  0.00000000  0.38529721
   0.00000000  0.50000000  0.00000000
   0.00000000  0.50000000  0.12723929
   0.00000000  0.50000000  0.25609133
   0.00000000  0.50000000  0.38529721
   0.00000000  0.00000000  0.06361964
   0.00000000  0.00000000  0.19085893
   0.00000000  0.00000000  0.31802151
   0.00000000  0.00000000  0.44957882
   0.50000000  0.50000000  0.53218876
Direct configuration=    12
   0.50000000  0.50000000  0.06361964
   0.50000000  0.50000000  0.19085893
   0.50000000  0.50000000  0.31724872
   0.50000000  0.50000000  0.44522191
   0.00000000  0.00000000  0.00000000
   0.00000000  0.00000000  0.12723929
   0.00000000  0.00000000  0.25716928
   0.00000000  0.00000000  0.38691388
   0.50000000  0.00000000  0.00000000
   0.50000000  0.00000000  0.12723929
   0.50000000  0.00000000  0.25596642
   0.50000000  0.00000000  0.38516479
   0.00000000  0.50000000  0.00000000
   0.00000000  0.50000000  0.12723929
   0.00000000  0.50000000  0.25596642
   0.00000000  0.50000000  0.38516479
   0.00000000  0.00000000  0.06361964
   0.00000000  0.00000000  0.19085893
   0.00000000  0.00000000  0.31834239
   0.00000000  0.00000000  0.44944380
   0.50000000  0.50000000  0.53460847
Direct configuration=    13
   0.50000000  0.50000000  0.06361964
   0.50000000  0.50000000  0.19085893
   0.50000000  0.50000000  0.31809155
   0.50000000  0.50000000  0.44670870
   0.00000000  0.00000000  0.00000000
   0.00000000  0.00000000  0.12723929
   0.00000000  0.00000000  0.25540385
   0.00000000  0.00000000  0.38705064
   0.50000000  0.00000000  0.00000000
   0.50000000  0.00000000  0.12723929
   0.50000000  0.00000000  0.25575115
   0.50000000  0.00000000  0.38505833
   0.00000000  0.50000000  0.00000000
   0.00000000  0.50000000  0.12723929
   0.00000000  0.50000000  0.25575115
   0.00000000  0.50000000  0.38505833
   0.00000000  0.00000000  0.06361964
   0.00000000  0.00000000  0.19085893
   0.00000000  0.00000000  0.32044063
   0.00000000  0.00000000  0.44821860
   0.50000000  0.50000000  0.53246520
Direct configuration=    14
   0.50000000  0.50000000  0.06361964
   0.50000000  0.50000000  0.19085893
   0.50000000  0.50000000  0.31825259
   0.50000000  0.50000000  0.44699277
   0.00000000  0.00000000  0.00000000
   0.00000000  0.00000000  0.12723929
   0.00000000  0.00000000  0.25506653
   0.00000000  0.00000000  0.38707677
   0.50000000  0.00000000  0.00000000
   0.50000000  0.00000000  0.12723929
   0.50000000  0.00000000  0.25571002
   0.50000000  0.00000000  0.38503798
   0.00000000  0.50000000  0.00000000
   0.00000000  0.50000000  0.12723929
   0.00000000  0.50000000  0.25571002
   0.00000000  0.50000000  0.38503798
   0.00000000  0.00000000  0.06361964
   0.00000000  0.00000000  0.19085893
   0.00000000  0.00000000  0.32084153
   0.00000000  0.00000000  0.44798450
   0.50000000  0.50000000  0.53205570
Direct configuration=    15
   0.50000000  0.50000000  0.06361964
   0.50000000  0.50000000  0.19085893
   0.50000000  0.50000000  0.31918537
   0.50000000  0.50000000  0.44726391
   0.00000000  0.00000000  0.00000000
   0.00000000  0.00000000  0.12723929
   0.00000000  0.00000000  0.25562264
   0.00000000  0.00000000  0.38588923
   0.50000000  0.00000000  0.00000000
   0.50000000  0.00000000  0.12723929
   0.50000000  0.00000000  0.25545067
   0.50000000  0.00000000  0.38516129
   0.00000000  0.50000000  0.00000000
   0.00000000  0.50000000  0.12723929
   0.00000000  0.50000000  0.25545067
   0.00000000  0.50000000  0.38516129
   0.00000000  0.00000000  0.06361964
   0.00000000  0.00000000  0.19085893
   0.00000000  0.00000000  0.32167625
   0.00000000  0.00000000  0.44752690
   0.50000000  0.50000000  0.53143647
Direct configuration=    16
   0.50000000  0.50000000  0.06361964
   0.50000000  0.50000000  0.19085893
   0.50000000  0.50000000  0.31916205
   0.50000000  0.50000000  0.44725713
   0.00000000  0.00000000  0.00000000
   0.00000000  0.00000000  0.12723929
   0.00000000  0.00000000  0.25560874
   0.00000000  0.00000000  0.38591891
   0.50000000  0.00000000  0.00000000
   0.50000000  0.00000000  0.12723929
   0.50000000  0.00000000  0.25545715
   0.50000000  0.00000000  0.38515820
   0.00000000  0.50000000  0.00000000
   0.00000000  0.50000000  0.12723929
   0.00000000  0.50000000  0.25545715
   0.00000000  0.50000000  0.38515820
   0.00000000  0.00000000  0.06361964
   0.00000000  0.00000000  0.19085893
   0.00000000  0.00000000  0.32165539
   0.00000000  0.00000000  0.44753834
   0.50000000  0.50000000  0.53145195
Direct configuration=    17
   0.50000000  0.50000000  0.06361964
   0.50000000  0.50000000  0.19085893
   0.50000000  0.50000000  0.31985379
   0.50000000  0.50000000  0.44701441
   0.00000000  0.00000000  0.00000000
   0.00000000  0.00000000  0.12723929
   0.00000000  0.00000000  0.25600523
   0.00000000  0.00000000  0.38599984
   0.50000000  0.00000000  0.00000000
   0.50000000  0.00000000  0.12723929
   0.50000000  0.00000000  0.25551017
   0.50000000  0.00000000  0.38511904
   0.00000000  0.50000000  0.00000000
   0.00000000  0.50000000  0.12723929
   0.00000000  0.50000000  0.25551017
   0.00000000  0.50000000  0.38511904
   0.00000000  0.00000000  0.06361964
   0.00000000  0.00000000  0.19085893
   0.00000000  0.00000000  0.32153394
   0.00000000  0.00000000  0.44698597
   0.50000000  0.50000000  0.53128086
Direct configuration=    18
   0.50000000  0.50000000  0.06361964
   0.50000000  0.50000000  0.19085893
   0.50000000  0.50000000  0.32036335
   0.50000000  0.50000000  0.44683562
   0.00000000  0.00000000  0.00000000
   0.00000000  0.00000000  0.12723929
   0.00000000  0.00000000  0.25629730
   0.00000000  0.00000000  0.38605946
   0.50000000  0.00000000  0.00000000
   0.50000000  0.00000000  0.12723929
   0.50000000  0.00000000  0.25554922
   0.50000000  0.00000000  0.38509019
   0.00000000  0.50000000  0.00000000
   0.00000000  0.50000000  0.12723929
   0.00000000  0.50000000  0.25554922
   0.00000000  0.50000000  0.38509019
   0.00000000  0.00000000  0.06361964
   0.00000000  0.00000000  0.19085893
   0.00000000  0.00000000  0.32144448
   0.00000000  0.00000000  0.44657909
   0.50000000  0.50000000  0.53115484
Direct configuration=    19
   0.50000000  0.50000000  0.06361964
   0.50000000  0.50000000  0.19085893
   0.50000000  0.50000000  0.32111443
   0.50000000  0.50000000  0.44629437
   0.00000000  0.00000000  0.00000000
   0.00000000  0.00000000  0.12723929
   0.00000000  0.00000000  0.25633298
   0.00000000  0.00000000  0.38583012
   0.50000000  0.00000000  0.00000000
   0.50000000  0.00000000  0.12723929
   0.50000000  0.00000000  0.25577031
   0.50000000  0.00000000  0.38489397
   0.00000000  0.50000000  0.00000000
   0.00000000  0.50000000  0.12723929
   0.00000000  0.50000000  0.25577031
   0.00000000  0.50000000  0.38489397
   0.00000000  0.00000000  0.06361964
   0.00000000  0.00000000  0.19085893
   0.00000000  0.00000000  0.32142425
   0.00000000  0.00000000  0.44657073
   0.50000000  0.50000000  0.53103627
Direct configuration=    20
   0.50000000  0.50000000  0.06361964
   0.50000000  0.50000000  0.19085893
   0.50000000  0.50000000  0.32114026
   0.50000000  0.50000000  0.44627575
   0.00000000  0.00000000  0.00000000
   0.00000000  0.00000000  0.12723929
   0.00000000  0.00000000  0.25633421
   0.00000000  0.00000000  0.38582223
   0.50000000  0.00000000  0.00000000
   0.50000000  0.00000000  0.12723929
   0.50000000  0.00000000  0.25577792
   0.50000000  0.00000000  0.38488722
   0.00000000  0.50000000  0.00000000
   0.00000000  0.50000000  0.12723929
   0.00000000  0.50000000  0.25577792
   0.00000000  0.50000000  0.38488722
   0.00000000  0.00000000  0.06361964
   0.00000000  0.00000000  0.19085893
   0.00000000  0.00000000  0.32142355
   0.00000000  0.00000000  0.44657044
   0.50000000  0.50000000  0.53103219
Direct configuration=    21
   0.50000000  0.50000000  0.06361964
   0.50000000  0.50000000  0.19085893
   0.50000000  0.50000000  0.32121277
   0.50000000  0.50000000  0.44631180
   0.00000000  0.00000000  0.00000000
   0.00000000  0.00000000  0.12723929
   0.00000000  0.00000000  0.25616322
   0.00000000  0.00000000  0.38576942
   0.50000000  0.00000000  0.00000000
   0.50000000  0.00000000  0.12723929
   0.50000000  0.00000000  0.25590841
   0.50000000  0.00000000  0.38471785
   0.00000000  0.50000000  0.00000000
   0.00000000  0.50000000  0.12723929
   0.00000000  0.50000000  0.25590841
   0.00000000  0.50000000  0.38471785
   0.00000000  0.00000000  0.06361964
   0.00000000  0.00000000  0.19085893
   0.00000000  0.00000000  0.32155585
   0.00000000  0.00000000  0.44668041
   0.50000000  0.50000000  0.53070361
Direct configuration=    22
   0.50000000  0.50000000  0.06361964
   0.50000000  0.50000000  0.19085893
   0.50000000  0.50000000  0.32121379
   0.50000000  0.50000000  0.44631231
   0.00000000  0.00000000  0.00000000
   0.00000000  0.00000000  0.12723929
   0.00000000  0.00000000  0.25616080
   0.00000000  0.00000000  0.38576867
   0.50000000  0.00000000  0.00000000
   0.50000000  0.00000000  0.12723929
   0.50000000  0.00000000  0.25591025
   0.50000000  0.00000000  0.38471545
   0.00000000  0.50000000  0.00000000
   0.00000000  0.50000000  0.12723929
   0.00000000  0.50000000  0.25591025
   0.00000000  0.50000000  0.38471545
   0.00000000  0.00000000  0.06361964
   0.00000000  0.00000000  0.19085893
   0.00000000  0.00000000  0.32155772
   0.00000000  0.00000000  0.44668197
   0.50000000  0.50000000  0.53069896
Direct configuration=    23
   0.50000000  0.50000000  0.06361964
   0.50000000  0.50000000  0.19085893
   0.50000000  0.50000000  0.32121282
   0.50000000  0.50000000  0.44631183
   0.00000000  0.00000000  0.00000000
   0.00000000  0.00000000  0.12723929
   0.00000000  0.00000000  0.25616309
   0.00000000  0.00000000  0.38576938
   0.50000000  0.00000000  0.00000000
   0.50000000  0.00000000  0.12723929
   0.50000000  0.00000000  0.25590850
   0.50000000  0.00000000  0.38471772
   0.00000000  0.50000000  0.00000000
   0.00000000  0.50000000  0.12723929
   0.00000000  0.50000000  0.25590850
   0.00000000  0.50000000  0.38471772
   0.00000000  0.00000000  0.06361964
   0.00000000  0.00000000  0.19085893
   0.00000000  0.00000000  0.32155595
   0.00000000  0.00000000  0.44668049
   0.50000000  0.50000000  0.53070336
Direct configuration=    24
   0.50000000  0.50000000  0.06361964
   0.50000000  0.50000000  0.19085893
   0.50000000  0.50000000  0.32121277
   0.50000000  0.50000000  0.44631180
   0.00000000  0.00000000  0.00000000
   0.00000000  0.00000000  0.12723929
   0.00000000  0.00000000  0.25616321
   0.00000000  0.00000000  0.38576942
   0.50000000  0.00000000  0.00000000
   0.50000000  0.00000000  0.12723929
   0.50000000  0.00000000  0.25590841
   0.50000000  0.00000000  0.38471784
   0.00000000  0.50000000  0.00000000
   0.00000000  0.50000000  0.12723929
   0.00000000  0.50000000  0.25590841
   0.00000000  0.50000000  0.38471784
   0.00000000  0.00000000  0.06361964
   0.00000000  0.00000000  0.19085893
   0.00000000  0.00000000  0.32155586
   0.00000000  0.00000000  0.44668042
   0.50000000  0.50000000  0.53070359
Direct configuration=    25
   0.50000000  0.50000000  0.06361964
   0.50000000  0.50000000  0.19085893
   0.50000000  0.50000000  0.32121277
   0.50000000  0.50000000  0.44631180
   0.00000000  0.00000000  0.00000000
   0.00000000  0.00000000  0.12723929
   0.00000000  0.00000000  0.25616322
   0.00000000  0.00000000  0.38576942
   0.50000000  0.00000000  0.00000000
   0.50000000  0.00000000  0.12723929
   0.50000000  0.00000000  0.25590841
   0.50000000  0.00000000  0.38471785
   0.00000000  0.50000000  0.00000000
   0.00000000  0.50000000  0.12723929
   0.00000000  0.50000000  0.25590841
   0.00000000  0.50000000  0.38471785
   0.00000000  0.00000000  0.06361964
   0.00000000  0.00000000  0.19085893
   0.00000000  0.00000000  0.32155585
   0.00000000  0.00000000  0.44668041
   0.50000000  0.50000000  0.53070361
Direct configuration=    26
   0.50000000  0.50000000  0.06361964
   0.50000000  0.50000000  0.19085893
   0.50000000  0.50000000  0.32107960
   0.50000000  0.50000000  0.44629856
   0.00000000  0.00000000  0.00000000
   0.00000000  0.00000000  0.12723929
   0.00000000  0.00000000  0.25620336
   0.00000000  0.00000000  0.38586694
   0.50000000  0.00000000  0.00000000
   0.50000000  0.00000000  0.12723929
   0.50000000  0.00000000  0.25594242
   0.50000000  0.00000000  0.38466350
   0.00000000  0.50000000  0.00000000
   0.00000000  0.50000000  0.12723929
   0.00000000  0.50000000  0.25594242
   0.00000000  0.50000000  0.38466350
   0.00000000  0.00000000  0.06361964
   0.00000000  0.00000000  0.19085893
   0.00000000  0.00000000  0.32153012
   0.00000000  0.00000000  0.44663015
   0.50000000  0.50000000  0.53058184
Direct configuration=    27
   0.50000000  0.50000000  0.06361964
   0.50000000  0.50000000  0.19085893
   0.50000000  0.50000000  0.32104602
   0.50000000  0.50000000  0.44629522
   0.00000000  0.00000000  0.00000000
   0.00000000  0.00000000  0.12723929
   0.00000000  0.00000000  0.25621348
   0.00000000  0.00000000  0.38589153
   0.50000000  0.00000000  0.00000000
   0.50000000  0.00000000  0.12723929
   0.50000000  0.00000000  0.25595100
   0.50000000  0.00000000  0.38464980
   0.00000000  0.50000000  0.00000000
   0.00000000  0.50000000  0.12723929
   0.00000000  0.50000000  0.25595100
   0.00000000  0.50000000  0.38464980
   0.00000000  0.00000000  0.06361964
   0.00000000  0.00000000  0.19085893
   0.00000000  0.00000000  0.32152364
   0.00000000  0.00000000  0.44661747
   0.50000000  0.50000000  0.53055114
Direct configuration=    28
   0.50000000  0.50000000  0.06361964
   0.50000000  0.50000000  0.19085893
   0.50000000  0.50000000  0.32106563
   0.50000000  0.50000000  0.44629717
   0.00000000  0.00000000  0.00000000
   0.00000000  0.00000000  0.12723929
   0.00000000  0.00000000  0.25620757
   0.00000000  0.00000000  0.38587717
   0.50000000  0.00000000  0.00000000
   0.50000000  0.00000000  0.12723929
   0.50000000  0.00000000  0.25594599
   0.50000000  0.00000000  0.38465780
   0.00000000  0.50000000  0.00000000
   0.00000000  0.50000000  0.12723929
   0.00000000  0.50000000  0.25594599
   0.00000000  0.50000000  0.38465780
   0.00000000  0.00000000  0.06361964
   0.00000000  0.00000000  0.19085893
   0.00000000  0.00000000  0.32152743
   0.00000000  0.00000000  0.44662488
   0.50000000  0.50000000  0.53056908
Direct configuration=    29
   0.50000000  0.50000000  0.06361964
   0.50000000  0.50000000  0.19085893
   0.50000000  0.50000000  0.32093155
   0.50000000  0.50000000  0.44623457
   0.00000000  0.00000000  0.00000000
   0.00000000  0.00000000  0.12723929
   0.00000000  0.00000000  0.25625744
   0.00000000  0.00000000  0.38583126
   0.50000000  0.00000000  0.00000000
   0.50000000  0.00000000  0.12723929
   0.50000000  0.00000000  0.25596139
   0.50000000  0.00000000  0.38462989
   0.00000000  0.50000000  0.00000000
   0.00000000  0.50000000  0.12723929
   0.00000000  0.50000000  0.25596139
   0.00000000  0.50000000  0.38462989
   0.00000000  0.00000000  0.06361964
   0.00000000  0.00000000  0.19085893
   0.00000000  0.00000000  0.32151660
   0.00000000  0.00000000  0.44663570
   0.50000000  0.50000000  0.53046539
Direct configuration=    30
   0.50000000  0.50000000  0.06361964
   0.50000000  0.50000000  0.19085893
   0.50000000  0.50000000  0.32074086
   0.50000000  0.50000000  0.44614555
   0.00000000  0.00000000  0.00000000
   0.00000000  0.00000000  0.12723929
   0.00000000  0.00000000  0.25632836
   0.00000000  0.00000000  0.38576597
   0.50000000  0.00000000  0.00000000
   0.50000000  0.00000000  0.12723929
   0.50000000  0.00000000  0.25598329
   0.50000000  0.00000000  0.38459021
   0.00000000  0.50000000  0.00000000
   0.00000000  0.50000000  0.12723929
   0.00000000  0.50000000  0.25598329
   0.00000000  0.50000000  0.38459021
   0.00000000  0.00000000  0.06361964
   0.00000000  0.00000000  0.19085893
   0.00000000  0.00000000  0.32150121
   0.00000000  0.00000000  0.44665109
   0.50000000  0.50000000  0.53031793
Direct configuration=    31
   0.50000000  0.50000000  0.06361964
   0.50000000  0.50000000  0.19085893
   0.50000000  0.50000000  0.32061950
   0.50000000  0.50000000  0.44603654
   0.00000000  0.00000000  0.00000000
   0.00000000  0.00000000  0.12723929
   0.00000000  0.00000000  0.25626828
   0.00000000  0.00000000  0.38571515
   0.50000000  0.00000000  0.00000000
   0.50000000  0.00000000  0.12723929
   0.50000000  0.00000000  0.25599429
   0.50000000  0.00000000  0.38456446
   0.00000000  0.50000000  0.00000000
   0.00000000  0.50000000  0.12723929
   0.00000000  0.50000000  0.25599429
   0.00000000  0.50000000  0.38456446
   0.00000000  0.00000000  0.06361964
   0.00000000  0.00000000  0.19085893
   0.00000000  0.00000000  0.32147686
   0.00000000  0.00000000  0.44658145
   0.50000000  0.50000000  0.53017858
Direct configuration=    32
   0.50000000  0.50000000  0.06361964
   0.50000000  0.50000000  0.19085893
   0.50000000  0.50000000  0.32025543
   0.50000000  0.50000000  0.44570950
   0.00000000  0.00000000  0.00000000
   0.00000000  0.00000000  0.12723929
   0.00000000  0.00000000  0.25608801
   0.00000000  0.00000000  0.38556268
   0.50000000  0.00000000  0.00000000
   0.50000000  0.00000000  0.12723929
   0.50000000  0.00000000  0.25602729
   0.50000000  0.00000000  0.38448722
   0.00000000  0.50000000  0.00000000
   0.00000000  0.50000000  0.12723929
   0.00000000  0.50000000  0.25602729
   0.00000000  0.50000000  0.38448722
   0.00000000  0.00000000  0.06361964
   0.00000000  0.00000000  0.19085893
   0.00000000  0.00000000  0.32140379
   0.00000000  0.00000000  0.44637252
   0.50000000  0.50000000  0.52976052
Direct configuration=    33
   0.50000000  0.50000000  0.06361964
   0.50000000  0.50000000  0.19085893
   0.50000000  0.50000000  0.32040971
   0.50000000  0.50000000  0.44584809
   0.00000000  0.00000000  0.00000000
   0.00000000  0.00000000  0.12723929
   0.00000000  0.00000000  0.25616440
   0.00000000  0.00000000  0.38562729
   0.50000000  0.00000000  0.00000000
   0.50000000  0.00000000  0.12723929
   0.50000000  0.00000000  0.25601330
   0.50000000  0.00000000  0.38451995
   0.00000000  0.50000000  0.00000000
   0.00000000  0.50000000  0.12723929
   0.00000000  0.50000000  0.25601330
   0.00000000  0.50000000  0.38451995
   0.00000000  0.00000000  0.06361964
   0.00000000  0.00000000  0.19085893
   0.00000000  0.00000000  0.32143475
   0.00000000  0.00000000  0.44646105
   0.50000000  0.50000000  0.52993768
Direct configuration=    34
   0.50000000  0.50000000  0.06361964
   0.50000000  0.50000000  0.19085893
   0.50000000  0.50000000  0.32036035
   0.50000000  0.50000000  0.44580375
   0.00000000  0.00000000  0.00000000
   0.00000000  0.00000000  0.12723929
   0.00000000  0.00000000  0.25613996
   0.00000000  0.00000000  0.38560662
   0.50000000  0.00000000  0.00000000
   0.50000000  0.00000000  0.12723929
   0.50000000  0.00000000  0.25601778
   0.50000000  0.00000000  0.38450948
   0.00000000  0.50000000  0.00000000
   0.00000000  0.50000000  0.12723929
   0.00000000  0.50000000  0.25601778
   0.00000000  0.50000000  0.38450948
   0.00000000  0.00000000  0.06361964
   0.00000000  0.00000000  0.19085893
   0.00000000  0.00000000  0.32142485
   0.00000000  0.00000000  0.44643273
   0.50000000  0.50000000  0.52988100
Direct configuration=    35
   0.50000000  0.50000000  0.06361964
   0.50000000  0.50000000  0.19085893
   0.50000000  0.50000000  0.32031474
   0.50000000  0.50000000  0.44577084
   0.00000000  0.00000000  0.00000000
   0.00000000  0.00000000  0.12723929
   0.00000000  0.00000000  0.25610236
   0.00000000  0.00000000  0.38555893
   0.50000000  0.00000000  0.00000000
   0.50000000  0.00000000  0.12723929
   0.50000000  0.00000000  0.25600336
   0.50000000  0.00000000  0.38448501
   0.00000000  0.50000000  0.00000000
   0.00000000  0.50000000  0.12723929
   0.00000000  0.50000000  0.25600336
   0.00000000  0.50000000  0.38448501
   0.00000000  0.00000000  0.06361964
   0.00000000  0.00000000  0.19085893
   0.00000000  0.00000000  0.32139764
   0.00000000  0.00000000  0.44636964
   0.50000000  0.50000000  0.52975084
Direct configuration=    36
   0.50000000  0.50000000  0.06361964
   0.50000000  0.50000000  0.19085893
   0.50000000  0.50000000  0.32030075
   0.50000000  0.50000000  0.44576074
   0.00000000  0.00000000  0.00000000
   0.00000000  0.00000000  0.12723929
   0.00000000  0.00000000  0.25609082
   0.00000000  0.00000000  0.38554429
   0.50000000  0.00000000  0.00000000
   0.50000000  0.00000000  0.12723929
   0.50000000  0.00000000  0.25599893
   0.50000000  0.00000000  0.38447750
   0.00000000  0.50000000  0.00000000
   0.00000000  0.50000000  0.12723929
   0.00000000  0.50000000  0.25599893
   0.00000000  0.50000000  0.38447750
   0.00000000  0.00000000  0.06361964
   0.00000000  0.00000000  0.19085893
   0.00000000  0.00000000  0.32138929
   0.00000000  0.00000000  0.44635028
   0.50000000  0.50000000  0.52971090
Direct configuration=    37
   0.50000000  0.50000000  0.06361964