unknown system                          
           1
     3.886808    0.000000    0.000000
     0.000000    3.886808    0.000000
     0.000000    0.000000   30.547233
   Sr   Fe   O 
   4   4  13
Direct configuration=     1
   0.50000000  0.50000000  0.06361964
   0.50000000  0.50000000  0.19085893
   0.50000000  0.50000000  0.31990395
   0.50000000  0.50000000  0.44489386
   0.00000000  0.00000000  0.00000000
   0.00000000  0.00000000  0.12723929
   0.00000000  0.00000000  0.25577349
   0.00000000  0.00000000  0.38455945
   0.50000000  0.00000000  0.00000000
   0.50000000  0.00000000  0.12723929
   0.50000000  0.00000000  0.25554105
   0.50000000  0.00000000  0.38350086
   0.00000000  0.50000000  0.00000000
   0.00000000  0.50000000  0.12723929
   0.00000000  0.50000000  0.25554105
   0.00000000  0.50000000  0.38350086
   0.00000000  0.00000000  0.06361964
   0.00000000  0.00000000  0.19085893
   0.00000000  0.00000000  0.32068684
   0.00000000  0.00000000  0.44538196
   0.50000000  0.50000000  0.52862455
Direct configuration=     2
   0.50000000  0.50000000  0.06361964
   0.50000000  0.50000000  0.19085893
   0.50000000  0.50000000  0.32033772
   0.50000000  0.50000000  0.44431208
   0.00000000  0.00000000  0.00000000
   0.00000000  0.00000000  0.12723929
   0.00000000  0.00000000  0.25555095
   0.00000000  0.00000000  0.38427487
   0.50000000  0.00000000  0.00000000
   0.50000000  0.00000000  0.12723929
   0.50000000  0.00000000  0.25532762
   0.50000000  0.00000000  0.38343064
   0.00000000  0.50000000  0.00000000
   0.00000000  0.50000000  0.12723929
   0.00000000  0.50000000  0.25532762
   0.00000000  0.50000000  0.38343064
   0.00000000  0.00000000  0.06361964
   0.00000000  0.00000000  0.19085893
   0.00000000  0.00000000  0.32048021
   0.00000000  0.00000000  0.44509333
   0.50000000  0.50000000  0.53328204
Direct configuration=     3
   0.50000000  0.50000000  0.06361964
   0.50000000  0.50000000  0.19085893
   0.50000000  0.50000000  0.32033613
   0.50000000  0.50000000  0.44431422
   0.00000000  0.00000000  0.00000000
   0.00000000  0.00000000  0.12723929
   0.00000000  0.00000000  0.25555176
   0.00000000  0.00000000  0.38427592
   0.50000000  0.00000000  0.00000000
   0.50000000  0.00000000  0.12723929
   0.50000000  0.00000000  0.25532840
   0.50000000  0.00000000  0.38343089
   0.00000000  0.50000000  0.00000000
   0.00000000  0.50000000  0.12723929
   0.00000000  0.50000000  0.25532840
   0.00000000  0.50000000  0.38343089
   0.00000000  0.00000000  0.06361964
   0.00000000  0.00000000  0.19085893
   0.00000000  0.00000000  0.32048097
   0.00000000  0.00000000  0.44509439
   0.50000000  0.50000000  0.53326494
Direct configuration=     4
   0.50000000  0.50000000  0.06361964
   0.50000000  0.50000000  0.19085893
   0.50000000  0.50000000  0.32029738
   0.50000000  0.50000000  0.44436618
   0.00000000  0.00000000  0.00000000
   0.00000000  0.00000000  0.12723929
   0.00000000  0.00000000  0.25557164
   0.00000000  0.00000000  0.38430134
   0.50000000  0.00000000  0.00000000
   0.50000000  0.00000000  0.12723929
   0.50000000  0.00000000  0.25534747
   0.50000000  0.00000000  0.38343717
   0.00000000  0.50000000  0.00000000
   0.00000000  0.50000000  0.12723929
   0.00000000  0.50000000  0.25534747
   0.00000000  0.50000000  0.38343717
   0.00000000  0.00000000  0.06361964
   0.00000000  0.00000000  0.19085893
   0.00000000  0.00000000  0.32049943
   0.00000000  0.00000000  0.44512017
   0.50000000  0.50000000  0.53284891
Direct configuration=     5
   0.50000000  0.50000000  0.06361964
   0.50000000  0.50000000  0.19085893
   0.50000000  0.50000000  0.32010067
   0.50000000  0.50000000  0.44463002
   0.00000000  0.00000000  0.00000000
   0.00000000  0.00000000  0.12723929
   0.00000000  0.00000000  0.25567257
   0.00000000  0.00000000  0.38443039
   0.50000000  0.00000000  0.00000000
   0.50000000  0.00000000  0.12723929
   0.50000000  0.00000000  0.25544426
   0.50000000  0.00000000  0.38346901
   0.00000000  0.50000000  0.00000000
   0.00000000  0.50000000  0.12723929
   0.00000000  0.50000000  0.25544426
   0.00000000  0.50000000  0.38346901
   0.00000000  0.00000000  0.06361964
   0.00000000  0.00000000  0.19085893
   0.00000000  0.00000000  0.32059313
   0.00000000  0.00000000  0.44525107
   0.50000000  0.50000000  0.53073673
Direct configuration=     6
   0.50000000  0.50000000  0.06361964
   0.50000000  0.50000000  0.19085893
   0.50000000  0.50000000  0.32000231
   0.50000000  0.50000000  0.44476194
   0.00000000  0.00000000  0.00000000
   0.00000000  0.00000000  0.12723929
   0.00000000  0.00000000  0.25572303
   0.00000000  0.00000000  0.38449492
   0.50000000  0.00000000  0.00000000
   0.50000000  0.00000000  0.12723929
   0.50000000  0.00000000  0.25549266
   0.50000000  0.00000000  0.38348494
   0.00000000  0.50000000  0.00000000
   0.00000000  0.50000000  0.12723929
   0.00000000  0.50000000  0.25549266
   0.00000000  0.50000000  0.38348494
   0.00000000  0.00000000  0.06361964
   0.00000000  0.00000000  0.19085893
   0.00000000  0.00000000  0.32063998
   0.00000000  0.00000000  0.44531651
   0.50000000  0.50000000  0.52968064
Direct configuration=     7
   0.50000000  0.50000000  0.06361964
   0.50000000  0.50000000  0.19085893
   0.50000000  0.50000000  0.31995313
   0.50000000  0.50000000  0.44482790
   0.00000000  0.00000000  0.00000000
   0.00000000  0.00000000  0.12723929
   0.00000000  0.00000000  0.25574826
   0.00000000  0.00000000  0.38452718
   0.50000000  0.00000000  0.00000000
   0.50000000  0.00000000  0.12723929
   0.50000000  0.00000000  0.25551686
   0.50000000  0.00000000  0.38349290
   0.00000000  0.50000000  0.00000000
   0.00000000  0.50000000  0.12723929
   0.00000000  0.50000000  0.25551686
   0.00000000  0.50000000  0.38349290
   0.00000000  0.00000000  0.06361964
   0.00000000  0.00000000  0.19085893
   0.00000000  0.00000000  0.32066341
   0.00000000  0.00000000  0.44534924
   0.50000000  0.50000000  0.52915259
Direct configuration=     8
   0.50000000  0.50000000  0.06361964
   0.50000000  0.50000000  0.19085893
   0.50000000  0.50000000  0.31996263
   0.50000000  0.50000000  0.44481517
   0.00000000  0.00000000  0.00000000
   0.00000000  0.00000000  0.12723929
   0.00000000  0.00000000  0.25574339
   0.00000000  0.00000000  0.38452096
   0.50000000  0.00000000  0.00000000
   0.50000000  0.00000000  0.12723929
   0.50000000  0.00000000  0.25551218
   0.50000000  0.00000000  0.38349136
   0.00000000  0.50000000  0.00000000
   0.00000000  0.50000000  0.12723929
   0.00000000  0.50000000  0.25551218
   0.00000000  0.50000000  0.38349136
   0.00000000  0.00000000  0.06361964
   0.00000000  0.00000000  0.19085893
   0.00000000  0.00000000  0.32065889
   0.00000000  0.00000000  0.44534292
   0.50000000  0.50000000  0.52925452
Direct configuration=     9
   0.50000000  0.50000000  0.06361964
   0.50000000  0.50000000  0.19085893
   0.50000000  0.50000000  0.31995508
   0.50000000  0.50000000  0.44482529
   0.00000000  0.00000000  0.00000000
   0.00000000  0.00000000  0.12723929
   0.00000000  0.00000000  0.25574726
   0.00000000  0.00000000  0.38452591
   0.50000000  0.00000000  0.00000000
   0.50000000  0.00000000  0.12723929
   0.50000000  0.00000000  0.25551590
   0.50000000  0.00000000  0.38349258
   0.00000000  0.50000000  0.00000000
   0.00000000  0.50000000  0.12723929
   0.00000000  0.50000000  0.25551590
   0.00000000  0.50000000  0.38349258
   0.00000000  0.00000000  0.06361964
   0.00000000  0.00000000  0.19085893
   0.00000000  0.00000000  0.32066248
   0.00000000  0.00000000  0.44534794
   0.50000000  0.50000000  0.52917347
Direct configuration=    10
   0.50000000  0.50000000  0.06361964
   0.50000000  0.50000000  0.19085893
   0.50000000  0.50000000  0.31995839
   0.50000000  0.50000000  0.44482085
   0.00000000  0.00000000  0.00000000
   0.00000000  0.00000000  0.12723929
   0.00000000  0.00000000  0.25574556
   0.00000000  0.00000000  0.38452373
   0.50000000  0.00000000  0.00000000
   0.50000000  0.00000000  0.12723929
   0.50000000  0.00000000  0.25551427
   0.50000000  0.00000000  0.38349205
   0.00000000  0.50000000  0.00000000
   0.00000000  0.50000000  0.12723929
   0.00000000  0.50000000  0.25551427
   0.00000000  0.50000000  0.38349205
   0.00000000  0.00000000  0.06361964
   0.00000000  0.00000000  0.19085893
   0.00000000  0.00000000  0.32066091
   0.00000000  0.00000000  0.44534574
   0.50000000  0.50000000  0.52920903
Direct configuration=    11
   0.50000000  0.50000000  0.06361964
   0.50000000  0.50000000  0.19085893
   0.50000000  0.50000000  0.31995659
   0.50000000  0.50000000  0.44482327
   0.00000000  0.00000000  0.00000000
   0.00000000  0.00000000  0.12723929
   0.00000000  0.00000000  0.25574649
   0.00000000  0.00000000  0.38452492
   0.50000000  0.00000000  0.00000000
   0.50000000  0.00000000  0.12723929
   0.50000000  0.00000000  0.25551516
   0.50000000  0.00000000  0.38349234
   0.00000000  0.50000000  0.00000000
   0.00000000  0.50000000  0.12723929
   0.00000000  0.50000000  0.25551516
   0.00000000  0.50000000  0.38349234
   0.00000000  0.00000000  0.06361964
   0.00000000  0.00000000  0.19085893
   0.00000000  0.00000000  0.32066177
   0.00000000  0.00000000  0.44534694
   0.50000000  0.50000000  0.52918967
Direct configuration=    12
   0.50000000  0.50000000  0.06361964
   0.50000000  0.50000000  0.19085893
   0.50000000  0.50000000  0.31995536
   0.50000000  0.50000000  0.44482491
   0.00000000  0.00000000  0.00000000
   0.00000000  0.00000000  0.12723929
   0.00000000  0.00000000  0.25574712
   0.00000000  0.00000000  0.38452572
   0.50000000  0.00000000  0.00000000
   0.50000000  0.00000000  0.12723929
   0.50000000  0.00000000  0.25551576
   0.50000000  0.00000000  0.38349254
   0.00000000  0.50000000  0.00000000
   0.00000000  0.50000000  0.12723929
   0.00000000  0.50000000  0.25551576
   0.00000000  0.50000000  0.38349254
   0.00000000  0.00000000  0.06361964
   0.00000000  0.00000000  0.19085893
   0.00000000  0.00000000  0.32066235
   0.00000000  0.00000000  0.44534776
   0.50000000  0.50000000  0.52917650
Direct configuration=    13
   0.50000000  0.50000000  0.06361964
   0.50000000  0.50000000  0.19085893
   0.50000000  0.50000000  0.31995513
   0.50000000  0.50000000  0.44482522
   0.00000000  0.00000000  0.00000000
   0.00000000  0.00000000  0.12723929
   0.00000000  0.00000000  0.25574723
   0.00000000  0.00000000  0.38452587
   0.50000000  0.00000000  0.00000000
   0.50000000  0.00000000  0.12723929
   0.50000000  0.00000000  0.25551587
   0.50000000  0.00000000  0.38349258
   0.00000000  0.50000000  0.00000000
   0.00000000  0.50000000  0.12723929
   0.00000000  0.50000000  0.25551587
   0.00000000  0.50000000  0.38349258
   0.00000000  0.00000000  0.06361964
   0.00000000  0.00000000  0.19085893
   0.00000000  0.00000000  0.32066246
   0.00000000  0.00000000  0.44534791
   0.50000000  0.50000000  0.52917405
Direct configuration=    14
   0.50000000  0.50000000  0.06361964
   0.50000000  0.50000000  0.19085893
   0.50000000  0.50000000  0.31995509
   0.50000000  0.50000000  0.44482527
   0.00000000  0.00000000  0.00000000
   0.00000000  0.00000000  0.12723929
   0.00000000  0.00000000  0.25574725
   0.00000000  0.00000000  0.38452590
   0.50000000  0.00000000  0.00000000
   0.50000000  0.00000000  0.12723929
   0.50000000  0.00000000  0.25551589
   0.50000000  0.00000000  0.38349258
   0.00000000  0.50000000  0.00000000
   0.00000000  0.50000000  0.12723929
   0.00000000  0.50000000  0.25551589
   0.00000000  0.50000000  0.38349258
   0.00000000  0.00000000  0.06361964
   0.00000000  0.00000000  0.19085893
   0.00000000  0.00000000  0.32066248
   0.00000000  0.00000000  0.44534793
   0.50000000  0.50000000  0.52917366
Direct configuration=    15
   0.50000000  0.50000000  0.06361964
   0.50000000  0.50000000  0.19085893
   0.50000000  0.50000000  0.31995508
   0.50000000  0.50000000  0.44482529
   0.00000000  0.00000000  0.00000000
   0.00000000  0.00000000  0.12723929
   0.00000000  0.00000000  0.25574726
   0.00000000  0.00000000  0.38452591
   0.50000000  0.00000000  0.00000000
   0.50000000  0.00000000  0.12723929
   0.50000000  0.00000000  0.25551590
   0.50000000  0.00000000  0.38349258
   0.00000000  0.50000000  0.00000000
   0.00000000  0.50000000  0.12723929
   0.00000000  0.50000000  0.25551590
   0.00000000  0.50000000  0.38349258
   0.00000000  0.00000000  0.06361964
   0.00000000  0.00000000  0.19085893
   0.00000000  0.00000000  0.32066248
   0.00000000  0.00000000  0.44534794
   0.50000000  0.50000000  0.52917351
Direct configuration=    16
   0.50000000  0.50000000  0.06361964
   0.50000000  0.50000000  0.19085893
   0.50000000  0.50000000  0.31995509
   0.50000000  0.50000000  0.44482528
   0.00000000  0.00000000  0.00000000
   0.00000000  0.00000000  0.12723929
   0.00000000  0.00000000  0.25574726
   0.00000000  0.00000000  0.38452590
   0.50000000  0.00000000  0.00000000
   0.50000000  0.00000000  0.12723929
   0.50000000  0.00000000  0.25551589
   0.50000000  0.00000000  0.38349258
   0.00000000  0.50000000  0.00000000
   0.00000000  0.50000000  0.12723929
   0.00000000  0.50000000  0.25551589
   0.00000000  0.50000000  0.38349258
   0.00000000  0.00000000  0.06361964
   0.00000000  0.00000000  0.19085893
   0.00000000  0.00000000  0.32066248
   0.00000000  0.00000000  0.44534794
   0.50000000  0.50000000  0.52917358
Direct configuration=    17
   0.50000000  0.50000000  0.06361964
   0.50000000  0.50000000  0.19085893
   0.50000000  0.50000000  0.31995508
   0.50000000  0.50000000  0.44482528
   0.00000000  0.00000000  0.00000000
   0.00000000  0.00000000  0.12723929
   0.00000000  0.00000000  0.25574726
   0.00000000  0.00000000  0.38452590
   0.50000000  0.00000000  0.00000000
   0.50000000  0.00000000  0.12723929
   0.50000000  0.00000000  0.25551589
   0.50000000  0.00000000  0.38349258
   0.00000000  0.50000000  0.00000000
   0.00000000  0.50000000  0.12723929
   0.00000000  0.50000000  0.25551589
   0.00000000  0.50000000  0.38349258
   0.00000000  0.00000000  0.06361964
   0.00000000  0.00000000  0.19085893
   0.00000000  0.00000000  0.32066248
   0.00000000  0.00000000  0.44534794
   0.50000000  0.50000000  0.52917355
Direct configuration=    18
   0.50000000  0.50000000  0.06361964
   0.50000000  0.50000000  0.19085893
   0.50000000  0.50000000  0.31995508
   0.50000000  0.50000000  0.44482529
   0.00000000  0.00000000  0.00000000
   0.00000000  0.00000000  0.12723929
   0.00000000  0.00000000  0.25574726
   0.00000000  0.00000000  0.38452590
   0.50000000  0.00000000  0.00000000
   0.50000000  0.00000000  0.12723929
   0.50000000  0.00000000  0.25551590
   0.50000000  0.00000000  0.38349258
   0.00000000  0.50000000  0.00000000
   0.00000000  0.50000000  0.12723929
   0.00000000  0.50000000  0.25551590
   0.00000000  0.50000000  0.38349258
   0.00000000  0.00000000  0.06361964
   0.00000000  0.00000000  0.19085893
   0.00000000  0.00000000  0.32066248
   0.00000000  0.00000000  0.44534794
   0.50000000  0.50000000  0.52917353
Direct configuration=    19
   0.50000000  0.50000000  0.06361964
   0.50000000  0.50000000  0.19085893
   0.50000000  0.50000000  0.31995508
   0.50000000  0.50000000  0.44482529
   0.00000000  0.00000000  0.00000000
   0.00000000  0.00000000  0.12723929
   0.00000000  0.00000000  0.25574726
   0.00000000  0.00000000  0.38452590
   0.50000000  0.00000000  0.00000000
   0.50000000  0.00000000  0.12723929
   0.50000000  0.00000000  0.25551590
   0.50000000  0.00000000  0.38349258
   0.00000000  0.50000000  0.00000000
   0.00000000  0.50000000  0.12723929
   0.00000000  0.50000000  0.25551590
   0.00000000  0.50000000  0.38349258
   0.00000000  0.00000000  0.06361964
   0.00000000  0.00000000  0.19085893
   0.00000000  0.00000000  0.32066248
   0.00000000  0.00000000  0.44534794
   0.50000000  0.50000000  0.52917351
