  39  39   0   0
  0.1495385E+03  0.1800000E-08  0.1800000E-08  0.1800000E-08  0.1000000E-15
  1.000000000000000E-004
  CAR 
 Pt cube particle                        
     53.42423220    -57.22969087  301     -2.13761278      1.00000000
    -57.230  0.0000E+00  0.0000E+00
    -56.861  0.0000E+00  0.0000E+00
    -56.492  0.0000E+00  0.0000E+00
    -56.123  0.0000E+00  0.0000E+00
    -55.754  0.0000E+00  0.0000E+00
    -55.385  0.0000E+00  0.0000E+00
    -55.017  0.0000E+00  0.0000E+00
    -54.648  0.0000E+00  0.0000E+00
    -54.279  0.0000E+00  0.0000E+00
    -53.910 -0.1401E-32 -0.5166E-33
    -53.541 -0.2068E-20 -0.7628E-21
    -53.172 -0.3254E-11 -0.1200E-11
    -52.804 -0.5452E-05 -0.2011E-05
    -52.435 -0.6119E-02 -0.2259E-02
    -52.066  0.1848E+00  0.6589E-01
    -51.697  0.4817E+00  0.2435E+00
    -51.328 -0.9511E-02  0.2400E+00
    -50.959 -0.1074E-03  0.2400E+00
    -50.590 -0.2391E-06  0.2400E+00
    -50.222 -0.1280E-02  0.2395E+00
    -49.853  0.4474E-01  0.2560E+00
    -49.484  0.6541E-01  0.2802E+00
    -49.115 -0.4141E-03  0.2800E+00
    -48.746 -0.1918E-04  0.2800E+00
    -48.377 -0.7917E-10  0.2800E+00
    -48.009  0.0000E+00  0.2800E+00
    -47.640  0.0000E+00  0.2800E+00
    -47.271  0.0000E+00  0.2800E+00
    -46.902  0.0000E+00  0.2800E+00
    -46.533  0.0000E+00  0.2800E+00
    -46.164  0.0000E+00  0.2800E+00
    -45.795  0.0000E+00  0.2800E+00
    -45.427  0.0000E+00  0.2800E+00
    -45.058  0.0000E+00  0.2800E+00
    -44.689  0.0000E+00  0.2800E+00
    -44.320  0.0000E+00  0.2800E+00
    -43.951  0.0000E+00  0.2800E+00
    -43.582  0.0000E+00  0.2800E+00
    -43.214  0.0000E+00  0.2800E+00
    -42.845  0.0000E+00  0.2800E+00
    -42.476  0.0000E+00  0.2800E+00
    -42.107  0.0000E+00  0.2800E+00
    -41.738  0.0000E+00  0.2800E+00
    -41.369  0.0000E+00  0.2800E+00
    -41.000  0.0000E+00  0.2800E+00
    -40.632  0.0000E+00  0.2800E+00
    -40.263  0.0000E+00  0.2800E+00
    -39.894  0.0000E+00  0.2800E+00
    -39.525  0.0000E+00  0.2800E+00
    -39.156  0.0000E+00  0.2800E+00
    -38.787  0.0000E+00  0.2800E+00
    -38.419  0.0000E+00  0.2800E+00
    -38.050  0.0000E+00  0.2800E+00
    -37.681  0.0000E+00  0.2800E+00
    -37.312  0.0000E+00  0.2800E+00
    -36.943  0.0000E+00  0.2800E+00
    -36.574  0.0000E+00  0.2800E+00
    -36.205  0.0000E+00  0.2800E+00
    -35.837  0.0000E+00  0.2800E+00
    -35.468  0.0000E+00  0.2800E+00
    -35.099  0.0000E+00  0.2800E+00
    -34.730  0.0000E+00  0.2800E+00
    -34.361  0.0000E+00  0.2800E+00
    -33.992  0.0000E+00  0.2800E+00
    -33.624  0.0000E+00  0.2800E+00
    -33.255  0.0000E+00  0.2800E+00
    -32.886 -0.3694E-41  0.2800E+00
    -32.517 -0.2758E-27  0.2800E+00
    -32.148 -0.2196E-16  0.2800E+00
    -31.779 -0.1794E-08  0.2800E+00
    -31.410 -0.1604E-03  0.2799E+00
    -31.042  0.2813E-02  0.2810E+00
    -30.673  0.2313E+00  0.3663E+00
    -30.304  0.4709E+00  0.5400E+00
    -29.935  0.5541E+00  0.7443E+00
    -29.566  0.8285E+00  0.1050E+01
    -29.197  0.4993E+00  0.1234E+01
    -28.829  0.1841E+00  0.1302E+01
    -28.460  0.8612E-02  0.1305E+01
    -28.091  0.8608E-01  0.1337E+01
    -27.722  0.1663E+00  0.1398E+01
    -27.353  0.6093E-01  0.1421E+01
    -26.984 -0.2041E-02  0.1420E+01
    -26.615 -0.5168E-05  0.1420E+01
    -26.247 -0.5462E-11  0.1420E+01
    -25.878  0.0000E+00  0.1420E+01
    -25.509  0.0000E+00  0.1420E+01
    -25.140  0.0000E+00  0.1420E+01
    -24.771  0.0000E+00  0.1420E+01
    -24.402  0.0000E+00  0.1420E+01
    -24.034  0.0000E+00  0.1420E+01
    -23.665  0.0000E+00  0.1420E+01
    -23.296  0.0000E+00  0.1420E+01
    -22.927 -0.8416E-29  0.1420E+01
    -22.558 -0.1462E-17  0.1420E+01
    -22.189 -0.2434E-09  0.1420E+01
    -21.820 -0.3477E-04  0.1420E+01
    -21.452  0.1820E-02  0.1421E+01
    -21.083  0.2629E-01  0.1430E+01
    -20.714 -0.9587E-03  0.1430E+01
    -20.345 -0.1848E-05  0.1430E+01
    -19.976 -0.1344E-11  0.1430E+01
    -19.607  0.0000E+00  0.1430E+01
    -19.239  0.0000E+00  0.1430E+01
    -18.870  0.0000E+00  0.1430E+01
    -18.501  0.0000E+00  0.1430E+01
    -18.132  0.0000E+00  0.1430E+01
    -17.763  0.0000E+00  0.1430E+01
    -17.394  0.0000E+00  0.1430E+01
    -17.025  0.0000E+00  0.1430E+01
    -16.657  0.0000E+00  0.1430E+01
    -16.288  0.0000E+00  0.1430E+01
    -15.919  0.0000E+00  0.1430E+01
    -15.550  0.0000E+00  0.1430E+01
    -15.181  0.0000E+00  0.1430E+01
    -14.812  0.0000E+00  0.1430E+01
    -14.444  0.0000E+00  0.1430E+01
    -14.075  0.0000E+00  0.1430E+01
    -13.706  0.0000E+00  0.1430E+01
    -13.337  0.0000E+00  0.1430E+01
    -12.968  0.0000E+00  0.1430E+01
    -12.599  0.0000E+00  0.1430E+01
    -12.230  0.0000E+00  0.1430E+01
    -11.862  0.0000E+00  0.1430E+01
    -11.493  0.0000E+00  0.1430E+01
    -11.124  0.0000E+00  0.1430E+01
    -10.755  0.0000E+00  0.1430E+01
    -10.386  0.0000E+00  0.1430E+01
    -10.017  0.0000E+00  0.1430E+01
     -9.649 -0.1652E-30  0.1430E+01
     -9.280 -0.8301E-19  0.1430E+01
     -8.911 -0.4064E-10  0.1430E+01
     -8.542 -0.1790E-04  0.1430E+01
     -8.173 -0.7708E-03  0.1430E+01
     -7.804  0.5511E-01  0.1450E+01
     -7.435  0.2068E-01  0.1458E+01
     -7.067  0.6445E-02  0.1460E+01
     -6.698 -0.2193E-03  0.1460E+01
     -6.329  0.5794E-02  0.1462E+01
     -5.960  0.2218E-01  0.1470E+01
     -5.591 -0.1838E-02  0.1470E+01
     -5.222  0.5762E-01  0.1491E+01
     -4.854  0.1011E+00  0.1528E+01
     -4.485  0.2376E+00  0.1616E+01
     -4.116  0.2172E+00  0.1696E+01
     -3.747  0.2767E+00  0.1798E+01
     -3.378  0.4506E+00  0.1964E+01
     -3.009  0.3147E+00  0.2080E+01
     -2.640  0.2750E+00  0.2182E+01
     -2.272  0.2865E+00  0.2287E+01
     -1.903  0.1933E+00  0.2359E+01
     -1.534  0.1980E+00  0.2432E+01
     -1.165  0.3228E+00  0.2551E+01
     -0.796  0.4140E+00  0.2703E+01
     -0.427  0.1586E+00  0.2762E+01
     -0.058 -0.5392E-02  0.2760E+01
      0.310 -0.6436E-05  0.2760E+01
      0.679 -0.4903E-11  0.2760E+01
      1.048  0.0000E+00  0.2760E+01
      1.417  0.0000E+00  0.2760E+01
      1.786  0.0000E+00  0.2760E+01
      2.155  0.0000E+00  0.2760E+01
      2.523  0.0000E+00  0.2760E+01
      2.892  0.0000E+00  0.2760E+01
      3.261  0.0000E+00  0.2760E+01
      3.630  0.0000E+00  0.2760E+01
      3.999  0.0000E+00  0.2760E+01
      4.368  0.0000E+00  0.2760E+01
      4.737  0.0000E+00  0.2760E+01
      5.105  0.0000E+00  0.2760E+01
      5.474  0.0000E+00  0.2760E+01
      5.843  0.0000E+00  0.2760E+01
      6.212  0.0000E+00  0.2760E+01
      6.581  0.0000E+00  0.2760E+01
      6.950  0.0000E+00  0.2760E+01
      7.318  0.0000E+00  0.2760E+01
      7.687  0.0000E+00  0.2760E+01
      8.056  0.0000E+00  0.2760E+01
      8.425  0.0000E+00  0.2760E+01
      8.794  0.0000E+00  0.2760E+01
      9.163  0.0000E+00  0.2760E+01
      9.532  0.0000E+00  0.2760E+01
      9.900  0.0000E+00  0.2760E+01
     10.269  0.0000E+00  0.2760E+01
     10.638  0.0000E+00  0.2760E+01
     11.007  0.0000E+00  0.2760E+01
     11.376  0.0000E+00  0.2760E+01
     11.745  0.0000E+00  0.2760E+01
     12.113  0.0000E+00  0.2760E+01
     12.482  0.0000E+00  0.2760E+01
     12.851  0.0000E+00  0.2760E+01
     13.220  0.0000E+00  0.2760E+01
     13.589  0.0000E+00  0.2760E+01
     13.958  0.0000E+00  0.2760E+01
     14.327  0.0000E+00  0.2760E+01
     14.695  0.0000E+00  0.2760E+01
     15.064  0.0000E+00  0.2760E+01
     15.433  0.0000E+00  0.2760E+01
     15.802  0.0000E+00  0.2760E+01
     16.171  0.0000E+00  0.2760E+01
     16.540  0.0000E+00  0.2760E+01
     16.908  0.0000E+00  0.2760E+01
     17.277  0.0000E+00  0.2760E+01
     17.646  0.0000E+00  0.2760E+01
     18.015  0.0000E+00  0.2760E+01
     18.384  0.0000E+00  0.2760E+01
     18.753  0.0000E+00  0.2760E+01
     19.122  0.0000E+00  0.2760E+01
     19.490  0.0000E+00  0.2760E+01
     19.859  0.0000E+00  0.2760E+01
     20.228  0.0000E+00  0.2760E+01
     20.597  0.0000E+00  0.2760E+01
     20.966  0.0000E+00  0.2760E+01
     21.335  0.0000E+00  0.2760E+01
     21.703  0.0000E+00  0.2760E+01
     22.072  0.0000E+00  0.2760E+01
     22.441  0.0000E+00  0.2760E+01
     22.810  0.0000E+00  0.2760E+01
     23.179  0.0000E+00  0.2760E+01
     23.548  0.0000E+00  0.2760E+01
     23.917  0.0000E+00  0.2760E+01
     24.285  0.0000E+00  0.2760E+01
     24.654  0.0000E+00  0.2760E+01
     25.023  0.0000E+00  0.2760E+01
     25.392  0.0000E+00  0.2760E+01
     25.761  0.0000E+00  0.2760E+01
     26.130  0.0000E+00  0.2760E+01
     26.498  0.0000E+00  0.2760E+01
     26.867  0.0000E+00  0.2760E+01
     27.236  0.0000E+00  0.2760E+01
     27.605  0.0000E+00  0.2760E+01
     27.974  0.0000E+00  0.2760E+01
     28.343  0.0000E+00  0.2760E+01
     28.712  0.0000E+00  0.2760E+01
     29.080  0.0000E+00  0.2760E+01
     29.449  0.0000E+00  0.2760E+01
     29.818  0.0000E+00  0.2760E+01
     30.187  0.0000E+00  0.2760E+01
     30.556  0.0000E+00  0.2760E+01
     30.925  0.0000E+00  0.2760E+01
     31.293  0.0000E+00  0.2760E+01
     31.662  0.0000E+00  0.2760E+01
     32.031  0.0000E+00  0.2760E+01
     32.400  0.0000E+00  0.2760E+01
     32.769  0.0000E+00  0.2760E+01
     33.138  0.0000E+00  0.2760E+01
     33.507  0.0000E+00  0.2760E+01
     33.875  0.0000E+00  0.2760E+01
     34.244  0.0000E+00  0.2760E+01
     34.613  0.0000E+00  0.2760E+01
     34.982  0.0000E+00  0.2760E+01
     35.351  0.0000E+00  0.2760E+01
     35.720  0.0000E+00  0.2760E+01
     36.088  0.0000E+00  0.2760E+01
     36.457  0.0000E+00  0.2760E+01
     36.826  0.0000E+00  0.2760E+01
     37.195  0.0000E+00  0.2760E+01
     37.564  0.0000E+00  0.2760E+01
     37.933  0.0000E+00  0.2760E+01
     38.302  0.0000E+00  0.2760E+01
     38.670  0.0000E+00  0.2760E+01
     39.039  0.0000E+00  0.2760E+01
     39.408  0.0000E+00  0.2760E+01
     39.777  0.0000E+00  0.2760E+01
     40.146  0.0000E+00  0.2760E+01
     40.515  0.0000E+00  0.2760E+01
     40.883  0.0000E+00  0.2760E+01
     41.252  0.0000E+00  0.2760E+01
     41.621  0.0000E+00  0.2760E+01
     41.990  0.0000E+00  0.2760E+01
     42.359  0.0000E+00  0.2760E+01
     42.728  0.0000E+00  0.2760E+01
     43.097 -0.3432E-41  0.2760E+01
     43.465 -0.2530E-27  0.2760E+01
     43.834 -0.1957E-16  0.2760E+01
     44.203 -0.1432E-08  0.2760E+01
     44.572 -0.8575E-04  0.2760E+01
     44.941  0.4958E-02  0.2762E+01
     45.310  0.2307E-01  0.2770E+01
     45.678 -0.8313E-03  0.2770E+01
     46.047 -0.5080E-06  0.2770E+01
     46.416 -0.1600E-12  0.2770E+01
     46.785 -0.4602E-29  0.2770E+01
     47.154 -0.9204E-18  0.2770E+01
     47.523 -0.1769E-09  0.2770E+01
     47.892 -0.2937E-04  0.2770E+01
     48.260  0.1407E-02  0.2771E+01
     48.629  0.2668E-01  0.2780E+01
     48.998 -0.9473E-03  0.2780E+01
     49.367 -0.2291E-05  0.2780E+01
     49.736 -0.1929E-11  0.2780E+01
     50.105  0.0000E+00  0.2780E+01
     50.473  0.0000E+00  0.2780E+01
     50.842  0.0000E+00  0.2780E+01
     51.211  0.0000E+00  0.2780E+01
     51.580  0.0000E+00  0.2780E+01
     51.949  0.0000E+00  0.2780E+01
     52.318  0.0000E+00  0.2780E+01
     52.687  0.0000E+00  0.2780E+01
     53.055  0.0000E+00  0.2780E+01
     53.424  0.0000E+00  0.2780E+01
