   39   39  200    1
  0.1495385E+03  0.1800000E-08  0.1800000E-08  0.1800000E-08  0.1000000E-15
  1.000000000000000E-004
  CAR 
 Pt cube particle                        
    462      1    278
 
  0.0000000E+00  0.0000000E+00  0.0000000E+00  0.1000000E+01
    1      -52.199967   1.000000
    2      -52.173085   1.000000
    3      -52.170208   1.000000
    4      -52.158937   1.000000
    5      -52.128776   1.000000
    6      -52.096785   1.000000
    7      -52.075521   1.000000
    8      -52.068850   1.000000
    9      -52.005709   1.000000
   10      -51.955050   1.000000
   11      -51.952789   1.000000
   12      -51.946384   1.000000
   13      -51.935165   1.000000
   14      -51.932575   1.000000
   15      -51.927405   1.000000
   16      -51.923748   1.000000
   17      -51.911226   1.000000
   18      -51.887228   1.000000
   19      -51.877129   1.000000
   20      -51.873211   1.000000
   21      -51.869226   1.000000
   22      -51.861801   1.000000
   23      -51.854417   1.000000
   24      -51.852923   1.000000
   25      -49.899830   1.000000
   26      -49.874616   1.000000
   27      -49.816591   1.000000
   28      -49.636828   1.000000
   29      -30.959238   1.000000
   30      -30.911872   1.000000
   31      -30.884532   1.000000
   32      -30.855158   1.000000
   33      -30.843370   1.000000
   34      -30.829255   1.000000
   35      -30.824309   1.000000
   36      -30.783772   1.000000
   37      -30.628434   1.000000
   38      -30.597762   1.000000
   39      -30.583378   1.000000
   40      -30.554491   1.000000
   41      -30.545392   1.000000
   42      -30.544910   1.000000
   43      -30.516918   1.000000
   44      -30.508757   1.000000
   45      -30.495792   1.000000
   46      -30.493940   1.000000
   47      -30.473638   1.000000
   48      -30.466957   1.000000
   49      -30.425871   1.000000
   50      -30.413351   1.000000
   51      -30.404172   1.000000
   52      -30.383647   1.000000
   53      -30.306762   1.000000
   54      -30.286439   1.000000
   55      -30.266697   1.000000
   56      -30.258632   1.000000
   57      -30.254077   1.000000
   58      -30.232937   1.000000
   59      -30.222563   1.000000
   60      -30.204267   1.000000
   61      -30.200396   1.000000
   62      -30.149449   1.000000
   63      -30.140869   1.000000
   64      -30.090371   1.000000
   65      -30.072872   1.000000
   66      -30.058656   1.000000
   67      -30.043700   1.000000
   68      -30.036163   1.000000
   69      -29.995684   1.000000
   70      -29.992378   1.000000
   71      -29.977754   1.000000
   72      -29.976490   1.000000
   73      -29.952916   1.000000
   74      -29.943178   1.000000
   75      -29.929412   1.000000
   76      -29.919563   1.000000
   77      -29.912470   1.000000
   78      -29.903387   1.000000
   79      -29.891368   1.000000
   80      -29.888781   1.000000
   81      -29.883129   1.000000
   82      -29.874950   1.000000
   83      -29.852621   1.000000
   84      -29.820624   1.000000
   85      -29.793645   1.000000
   86      -29.766118   1.000000
   87      -29.738481   1.000000
   88      -29.727526   1.000000
   89      -29.725333   1.000000
   90      -29.703317   1.000000
   91      -29.690752   1.000000
   92      -29.677735   1.000000
   93      -29.673903   1.000000
   94      -29.662545   1.000000
   95      -29.657550   1.000000
   96      -29.654179   1.000000
   97      -29.649982   1.000000
   98      -29.644322   1.000000
   99      -29.638725   1.000000
  100      -29.625071   1.000000
  101      -29.616608   1.000000
  102      -29.595463   1.000000
  103      -29.582218   1.000000
  104      -29.580326   1.000000
  105      -29.570521   1.000000
  106      -29.565679   1.000000
  107      -29.551720   1.000000
  108      -29.545155   1.000000
  109      -29.532347   1.000000
  110      -29.530361   1.000000
  111      -29.521318   1.000000
  112      -29.511853   1.000000
  113      -29.505999   1.000000
  114      -29.499467   1.000000
  115      -29.497296   1.000000
  116      -29.466790   1.000000
  117      -29.410525   1.000000
  118      -29.377893   1.000000
  119      -29.316357   1.000000
  120      -29.305822   1.000000
  121      -29.293098   1.000000
  122      -29.275861   1.000000
  123      -29.196041   1.000000
  124      -29.166463   1.000000
  125      -29.155685   1.000000
  126      -29.137067   1.000000
  127      -29.077023   1.000000
  128      -29.046066   1.000000
  129      -29.041106   1.000000
  130      -29.031674   1.000000
  131      -28.451077   1.000000
  132      -28.346574   1.000000
  133      -28.126713   1.000000
  134      -28.068577   1.000000
  135      -28.040388   1.000000
  136      -28.016443   1.000000
  137      -28.002098   1.000000
  138      -27.901623   1.000000
  139      -27.854216   1.000000
  140      -27.757820   1.000000
  141      -27.608293   1.000000
  142      -27.568736   1.000000
  143      -21.325041   1.000000
  144       -7.991064   1.000000
  145       -7.987529   1.000000
  146       -7.502231   1.000000
  147       -6.255048   1.000000
  148       -5.413039   1.000000
  149       -5.387612   1.000000
  150       -5.134838   1.000000
  151       -4.979925   1.000000
  152       -4.926266   1.000000
  153       -4.894506   1.000000
  154       -4.808442   1.000000
  155       -4.771369   1.000000
  156       -4.719421   1.000000
  157       -4.691827   1.000000
  158       -4.614096   1.000000
  159       -4.599144   1.000000
  160       -4.579294   1.000000
  161       -4.556331   1.000000
  162       -4.534015   1.000000
  163       -4.414548   1.000000
  164       -4.374419   1.000000
  165       -4.362119   1.000000
  166       -4.296603   1.000000
  167       -4.286789   1.000000
  168       -4.207919   1.000000
  169       -4.197141   1.000000
  170       -4.173358   1.000000
  171       -4.022358   1.000000
  172       -3.998968   1.000000
  173       -3.961672   1.000000
  174       -3.943569   1.000000
  175       -3.921186   1.000000
  176       -3.906872   1.000000
  177       -3.878081   1.000000
  178       -3.861631   1.000000
  179       -3.833749   1.000000
  180       -3.733883   1.000000
  181       -3.685650   1.000000
  182       -3.678003   1.000000
  183       -3.655311   1.000000
  184       -3.644589   1.000000
  185       -3.600677   1.000000
  186       -3.582979   1.000000
  187       -3.579493   1.000000
  188       -3.575361   1.000000
  189       -3.564999   1.000000
  190       -3.548764   1.000000
  191       -3.508917   1.000000
  192       -3.475927   1.000000
  193       -3.467887   1.000000
  194       -3.454903   1.000000
  195       -3.447641   1.000000
  196       -3.395926   1.000000
  197       -3.381024   1.000000
  198       -3.361065   1.000000
  199       -3.336241   1.000000
  200       -3.334236   1.000000
  201       -3.216831   1.000000
  202       -3.138991   1.000000
  203       -3.128688   1.000000
  204       -3.109792   1.000000
  205       -3.096366   1.000000
  206       -3.084495   1.000000
  207       -3.073558   1.000000
  208       -3.061630   1.000000
  209       -3.051002   1.000000
  210       -2.950878   1.000000
  211       -2.917607   1.000000
  212       -2.877599   1.000001
  213       -2.866779   1.000002
  214       -2.832700   1.000005
  215       -2.821691   1.000007
  216       -2.761876   1.000047
  217       -2.674104   1.000493
  218       -2.609049   1.002140
  219       -2.581701   1.003681
  220       -2.570342   1.004549
  221       -2.558372   1.005636
  222       -2.551525   1.006344
  223       -2.535604   1.008257
  224       -2.511381   1.011929
  225       -2.503636   1.013301
  226       -2.493578   1.015219
  227       -2.476655   1.018757
  228       -2.434586   1.028321
  229       -2.198959   0.746535
  230       -2.191182   0.717904
  231       -2.152474   0.562691
  232       -2.132308   0.477564
  233       -2.093587   0.318625
  234       -2.058503   0.192527
  235       -1.932857  -0.027422
  236       -1.902541  -0.035056
  237       -1.886685  -0.035326
  238       -1.867258  -0.033379
  239       -1.638869  -0.001191
  240       -1.626735  -0.000905
  241       -1.604677  -0.000538
  242       -1.579499  -0.000287
  243       -1.568673  -0.000217
  244       -1.551770  -0.000138
  245       -1.512257  -0.000045
  246       -1.495303  -0.000027
  247       -1.427388  -0.000003
  248       -1.389416  -0.000001
  249       -1.346611   0.000000
  250       -1.340231   0.000000
  251       -1.322844   0.000000
  252       -1.272013   0.000000
  253       -1.217233   0.000000
  254       -1.207378   0.000000
  255       -1.200211   0.000000
  256       -1.178243   0.000000
  257       -1.129604   0.000000
  258       -1.116389   0.000000
  259       -1.029784   0.000000
  260       -1.008200   0.000000
  261       -1.005967   0.000000
  262       -0.996696   0.000000
  263       -0.955325   0.000000
  264       -0.949309   0.000000
  265       -0.928640   0.000000
  266       -0.924945   0.000000
  267       -0.915594   0.000000
  268       -0.904271   0.000000
  269       -0.898924   0.000000
  270       -0.826427   0.000000
  271       -0.745485   0.000000
  272       -0.727996   0.000000
  273       -0.720379   0.000000
  274       -0.706487   0.000000
  275       -0.669147   0.000000
  276       -0.652114   0.000000
  277       45.023890   0.000000
  278       48.394508   0.000000
