 running on    8 total cores
 distrk:  each k-point on    8 cores,    1 groups
 distr:  one band on    4 cores,    2 groups
 using from now: INCAR     
 vasp.5.4.1 24Jun15 (build Jan 06 2016 13:19:48) gamma-only                     
  
 POSCAR found :  2 types and      39 ions
 scaLAPACK will be used
 ERROR: number of potentials on File POTCAR incompatible with number of species
 INCAR :           2 POTCAR:            1
 running on    8 total cores
 distrk:  each k-point on    8 cores,    1 groups
 distr:  one band on    4 cores,    2 groups
 using from now: INCAR     
 vasp.5.4.1 24Jun15 (build Jan 06 2016 13:19:48) gamma-only                     
  
 POSCAR found :  2 types and      39 ions
 scaLAPACK will be used
 LDA part: xc-table for Ceperly-Alder, standard interpolation
 POSCAR found :  2 types and      39 ions
 POSCAR, INCAR and KPOINTS ok, starting setup
 WARNING: small aliasing (wrap around) errors must be expected
 FFT: planning ...
 WAVECAR not read
 WARNING: random wavefunctions but no delay for mixing, default for NELMDL
 entering main loop
       N       E                     dE             d eps       ncg     rms          rms(c)
RMM:   1     0.597083912724E+04    0.59708E+04   -0.16859E+05   278   0.764E+02
RMM:   2     0.162108719541E+04   -0.43498E+04   -0.91714E+04   278   0.291E+02
RMM:   3     0.172019488407E+04    0.99108E+02   -0.46461E+04   278   0.313E+02
RMM:   4     0.101168402472E+04   -0.70851E+03   -0.12014E+04   278   0.192E+02
RMM:   5     0.661023433327E+03   -0.35066E+03   -0.54121E+03   278   0.150E+02
RMM:   6     0.528607266307E+03   -0.13242E+03   -0.32734E+03   278   0.127E+02
RMM:   7     0.490083291174E+03   -0.38524E+02   -0.22332E+03   278   0.121E+02
RMM:   8     0.259635906607E+03   -0.23045E+03   -0.43140E+03   278   0.125E+02
RMM:   9     0.208733958112E+03   -0.50902E+02   -0.37154E+03   826   0.120E+02
RMM:  10     0.454527494673E+03    0.24579E+03   -0.11959E+03   814   0.661E+01
RMM:  11     0.652062027119E+03    0.19753E+03   -0.54890E+01   798   0.302E+01
RMM:  12     0.651445999716E+03   -0.61603E+00   -0.27409E+02   914   0.131E+01    0.370E+01
RMM:  13     0.689977225340E+03    0.38531E+02   -0.79073E+02   863   0.309E+01    0.255E+01
RMM:  14     0.730944899981E+03    0.40968E+02   -0.76283E+01   783   0.176E+01    0.115E+01
RMM:  15     0.725970728649E+03   -0.49742E+01   -0.12439E+02   928   0.102E+01    0.111E+01
RMM:  16     0.724700073344E+03   -0.12707E+01   -0.51840E+01   963   0.574E+00    0.971E+00
RMM:  17     0.722242219778E+03   -0.24579E+01   -0.33231E+01   991   0.372E+00    0.978E+00
RMM:  18     0.721394695258E+03   -0.84752E+00   -0.15611E+01  1017   0.262E+00    0.885E+00
RMM:  19     0.720360175968E+03   -0.10345E+01   -0.19836E+01   896   0.325E+00    0.627E+00
RMM:  20     0.719996513878E+03   -0.36366E+00   -0.19013E+01   948   0.354E+00    0.611E+00
RMM:  21     0.720369908686E+03    0.37339E+00   -0.69607E+00   948   0.214E+00    0.477E+00
RMM:  22     0.720357861183E+03   -0.12048E-01   -0.43376E+00   958   0.140E+00    0.331E+00
RMM:  23     0.720216366521E+03   -0.14149E+00   -0.25299E+00   988   0.925E-01    0.246E+00
RMM:  24     0.720081399099E+03   -0.13497E+00   -0.17690E+00   992   0.678E-01    0.194E+00
RMM:  25     0.719997596341E+03   -0.83803E-01   -0.11017E+00   938   0.696E-01    0.134E+00
RMM:  26     0.719893620892E+03   -0.10398E+00   -0.12952E+00   935   0.843E-01    0.831E-01
RMM:  27     0.719846883191E+03   -0.46738E-01   -0.77264E-01   928   0.539E-01    0.799E-01
RMM:  28     0.719777989416E+03   -0.68894E-01   -0.80656E-01   956   0.431E-01    0.104E+00
RMM:  29     0.719746156681E+03   -0.31833E-01   -0.43904E-01   967   0.357E-01    0.113E+00
RMM:  30     0.719717066580E+03   -0.29090E-01   -0.47702E-01   915   0.386E-01    0.103E+00
RMM:  31     0.719704518623E+03   -0.12548E-01   -0.45582E-01   914   0.512E-01    0.669E-01
RMM:  32     0.719680565534E+03   -0.23953E-01   -0.39651E-01   922   0.386E-01    0.539E-01
RMM:  33     0.719662623164E+03   -0.17942E-01   -0.23182E-01   915   0.260E-01    0.414E-01
RMM:  34     0.719640660089E+03   -0.21963E-01   -0.24602E-01   930   0.214E-01    0.277E-01
RMM:  35     0.719622891466E+03   -0.17769E-01   -0.19492E-01   891   0.197E-01    0.192E-01
RMM:  36     0.719603855375E+03   -0.19036E-01   -0.19798E-01   865   0.175E-01    0.145E-01
RMM:  37     0.719585901539E+03   -0.17954E-01   -0.17873E-01   872   0.155E-01    0.100E-01
RMM:  38     0.719568174386E+03   -0.17727E-01   -0.17083E-01   702   0.130E-01    0.845E-02
RMM:  39     0.719550878056E+03   -0.17296E-01   -0.16046E-01   842   0.141E-01    0.648E-02
RMM:  40     0.719533997120E+03   -0.16881E-01   -0.15365E-01   705   0.122E-01    0.605E-02
RMM:  41     0.719518219341E+03   -0.15778E-01   -0.14639E-01   756   0.121E-01    0.232E-02
RMM:  42     0.719503471518E+03   -0.14748E-01   -0.13937E-01   627   0.108E-01    0.362E-02
RMM:  43     0.719489529683E+03   -0.13942E-01   -0.13418E-01   559   0.964E-02    0.527E-02
RMM:  44     0.719476262714E+03   -0.13267E-01   -0.12889E-01   505   0.920E-02    0.910E-02
RMM:  45     0.719463203615E+03   -0.13059E-01   -0.12510E-01   668   0.969E-02    0.845E-02
RMM:  46     0.719450700919E+03   -0.12503E-01   -0.11933E-01   635   0.953E-02    0.642E-02
RMM:  47     0.719438541124E+03   -0.12160E-01   -0.11630E-01   568   0.894E-02    0.633E-02
RMM:  48     0.719427079475E+03   -0.11462E-01   -0.11077E-01   540   0.842E-02    0.738E-02
RMM:  49     0.719415916925E+03   -0.11163E-01   -0.10850E-01   419   0.767E-02    0.946E-02
RMM:  50     0.719405194124E+03   -0.10723E-01   -0.10388E-01   494   0.797E-02    0.109E-01
RMM:  51     0.719394664361E+03   -0.10530E-01   -0.10226E-01   483   0.767E-02    0.127E-01
RMM:  52     0.719384482294E+03   -0.10182E-01   -0.98723E-02   453   0.732E-02    0.149E-01
RMM:  53     0.719374458701E+03   -0.10024E-01   -0.97430E-02   428   0.705E-02    0.169E-01
RMM:  54     0.719364753845E+03   -0.97049E-02   -0.94352E-02   426   0.686E-02    0.192E-01
RMM:  55     0.719355175015E+03   -0.95788E-02   -0.93034E-02   421   0.682E-02    0.218E-01
RMM:  56     0.719345852774E+03   -0.93222E-02   -0.90679E-02   448   0.668E-02    0.241E-01
RMM:  57     0.719336651119E+03   -0.92017E-02   -0.89369E-02   398   0.629E-02    0.268E-01
RMM:  58     0.719327638553E+03   -0.90126E-02   -0.87581E-02   396   0.619E-02    0.300E-01
RMM:  59     0.719318747140E+03   -0.88914E-02   -0.86348E-02   381   0.612E-02    0.331E-01
RMM:  60     0.719310006207E+03   -0.87409E-02   -0.84849E-02   378   0.607E-02
   1 F= 0.71931001E+03 E0= 0.71925429E+03  d E =0.719310E+03
 curvature:   0.00 expect dE= 0.000E+00 dE for cont linesearch  0.000E+00
 trial: gam= 0.00000 g(F)=  0.350E+01 g(S)=  0.000E+00 ort = 0.000E+00 (trialstep = 0.100E+01)
 search vector abs. value=  0.350E+01
 bond charge predicted
       N       E                     dE             d eps       ncg     rms          rms(c)
RMM:   1     0.715149209270E+03   -0.41695E+01   -0.13207E+02   677   0.185E+01    0.242E+00
RMM:   2     0.716357087682E+03    0.12079E+01    0.97187E+00   781   0.586E+00    0.147E+00
RMM:   3     0.716057876826E+03   -0.29921E+00   -0.19736E+00   989   0.170E+00    0.137E+00
RMM:   4     0.716057821525E+03   -0.55301E-04   -0.64907E-01  1019   0.845E-01    0.773E-01
RMM:   5     0.716047259309E+03   -0.10562E-01   -0.33252E-01  1035   0.554E-01    0.469E-01
RMM:   6     0.716035606820E+03   -0.11652E-01   -0.18184E-01  1020   0.366E-01    0.391E-01
RMM:   7     0.716029060290E+03   -0.65465E-02   -0.10681E-01  1023   0.248E-01    0.231E-01
RMM:   8     0.716021565732E+03   -0.74946E-02   -0.80879E-02  1032   0.173E-01    0.152E-01
RMM:   9     0.716014250432E+03   -0.73153E-02   -0.70610E-02  1020   0.131E-01    0.108E-01
RMM:  10     0.716007834933E+03   -0.64155E-02   -0.64720E-02   933   0.959E-02    0.864E-02
RMM:  11     0.716001713844E+03   -0.61211E-02   -0.61903E-02   915   0.868E-02    0.555E-02
RMM:  12     0.715995696666E+03   -0.60172E-02   -0.58992E-02   733   0.708E-02    0.266E-02
RMM:  13     0.715989707578E+03   -0.59891E-02   -0.57515E-02   623   0.621E-02    0.236E-02
RMM:  14     0.715983802393E+03   -0.59052E-02   -0.56591E-02   582   0.601E-02    0.148E-02
RMM:  15     0.715978049784E+03   -0.57526E-02   -0.55490E-02   522   0.575E-02    0.146E-02
RMM:  16     0.715972388066E+03   -0.56617E-02   -0.54886E-02   498   0.542E-02    0.167E-02
RMM:  17     0.715966851567E+03   -0.55365E-02   -0.54065E-02   451   0.512E-02    0.309E-02
RMM:  18     0.715961296278E+03   -0.55553E-02   -0.53478E-02   484   0.519E-02    0.395E-02
RMM:  19     0.715955826350E+03   -0.54699E-02   -0.52666E-02   508   0.541E-02    0.407E-02
RMM:  20     0.715950449990E+03   -0.53764E-02   -0.52108E-02   492   0.524E-02    0.407E-02
RMM:  21     0.715945185703E+03   -0.52643E-02   -0.51231E-02   442   0.479E-02    0.502E-02
RMM:  22     0.715939974730E+03   -0.52110E-02   -0.50630E-02   444   0.487E-02    0.636E-02
RMM:  23     0.715934836137E+03   -0.51386E-02   -0.50032E-02   419   0.482E-02    0.775E-02
RMM:  24     0.715929749210E+03   -0.50869E-02   -0.49487E-02   406   0.483E-02    0.930E-02
RMM:  25     0.715924730169E+03   -0.50190E-02   -0.48879E-02   390   0.458E-02    0.110E-01
RMM:  26     0.715919774495E+03   -0.49557E-02   -0.48237E-02   347   0.419E-02    0.129E-01
RMM:  27     0.715914871858E+03   -0.49026E-02   -0.47716E-02   306   0.404E-02    0.151E-01
RMM:  28     0.715910031876E+03   -0.48400E-02   -0.47130E-02   284   0.409E-02    0.173E-01
RMM:  29     0.715905254725E+03   -0.47772E-02   -0.46565E-02   289   0.415E-02    0.197E-01
RMM:  30     0.715900532711E+03   -0.47220E-02   -0.46040E-02   321   0.428E-02    0.221E-01
RMM:  31     0.715895853609E+03   -0.46791E-02   -0.45543E-02   290   0.404E-02    0.247E-01
RMM:  32     0.715891239259E+03   -0.46144E-02   -0.44946E-02   320   0.398E-02    0.274E-01
RMM:  33     0.715886676826E+03   -0.45624E-02   -0.44444E-02   282   0.382E-02    0.302E-01
RMM:  34     0.715882171469E+03   -0.45054E-02   -0.43909E-02   282   0.386E-02    0.331E-01
RMM:  35     0.715877713095E+03   -0.44584E-02   -0.43377E-02   276   0.387E-02    0.362E-01
RMM:  36     0.715873271966E+03   -0.44411E-02   -0.42902E-02   314   0.397E-02    0.394E-01
RMM:  37     0.715868855122E+03   -0.44168E-02   -0.42551E-02   350   0.398E-02    0.428E-01
RMM:  38     0.715864493236E+03   -0.43619E-02   -0.42076E-02   357   0.382E-02    0.463E-01
RMM:  39     0.715860230031E+03   -0.42632E-02   -0.41530E-02   328   0.378E-02    0.498E-01
RMM:  40     0.715856032949E+03   -0.41971E-02   -0.40984E-02   324   0.387E-02    0.533E-01
RMM:  41     0.715851869362E+03   -0.41636E-02   -0.40463E-02   351   0.407E-02    0.570E-01
RMM:  42     0.715847773430E+03   -0.40959E-02   -0.39996E-02   378   0.412E-02    0.607E-01
RMM:  43     0.715843701178E+03   -0.40723E-02   -0.39519E-02   322   0.378E-02    0.644E-01
RMM:  44     0.715839711802E+03   -0.39894E-02   -0.38912E-02   287   0.362E-02    0.682E-01
RMM:  45     0.715835760594E+03   -0.39512E-02   -0.38494E-02   316   0.370E-02    0.720E-01
RMM:  46     0.715831868634E+03   -0.38920E-02   -0.37918E-02   287   0.362E-02    0.759E-01
RMM:  47     0.715827941617E+03   -0.39270E-02   -0.37506E-02   322   0.364E-02    0.801E-01
RMM:  48     0.715824135155E+03   -0.38065E-02   -0.37006E-02   308   0.363E-02    0.842E-01
RMM:  49     0.715820389032E+03   -0.37461E-02   -0.36533E-02   313   0.362E-02    0.883E-01
RMM:  50     0.715816696241E+03   -0.36928E-02   -0.35978E-02   333   0.366E-02    0.924E-01
RMM:  51     0.715813067177E+03   -0.36291E-02   -0.35500E-02   327   0.367E-02    0.965E-01
RMM:  52     0.715809415719E+03   -0.36515E-02   -0.35045E-02   305   0.351E-02    0.101E+00
RMM:  53     0.715805837658E+03   -0.35781E-02   -0.34576E-02   301   0.350E-02    0.105E+00
RMM:  54     0.715802330372E+03   -0.35073E-02   -0.34097E-02   283   0.343E-02    0.109E+00
RMM:  55     0.715798890668E+03   -0.34397E-02   -0.33602E-02   282   0.352E-02    0.114E+00
RMM:  56     0.715795493044E+03   -0.33976E-02   -0.33088E-02   311   0.360E-02    0.118E+00
RMM:  57     0.715791868884E+03   -0.36242E-02   -0.32863E-02   335   0.347E-02    0.122E+00
RMM:  58     0.715788526955E+03   -0.33419E-02   -0.32339E-02   322   0.351E-02    0.127E+00
RMM:  59     0.715785332117E+03   -0.31948E-02   -0.31782E-02   309   0.354E-02    0.131E+00
RMM:  60     0.715782092323E+03   -0.32398E-02   -0.31333E-02   326   0.357E-02
   2 F= 0.71578209E+03 E0= 0.71571786E+03  d E =-.352791E+01
 ZBRENT: can't locate minimum, use default step
 trial-energy change:   -3.527914  1 .order   -3.222697   -3.503544   -2.941850
 step:   4.0000(harm=  6.2375)  dis= 0.13413  next Energy=   708.383405 (dE=-0.109E+02)
 bond charge predicted
       N       E                     dE             d eps       ncg     rms          rms(c)
RMM:   1     0.698312456489E+03   -0.17473E+02   -0.11935E+03   674   0.551E+01    0.732E+00
RMM:   2     0.715798049623E+03    0.17486E+02    0.33582E+02   703   0.304E+01    0.526E+00
RMM:   3     0.709319048905E+03   -0.64790E+01   -0.25113E+01   970   0.643E+00    0.378E+00
RMM:   4     0.709101266261E+03   -0.21778E+00   -0.61602E+00   995   0.277E+00    0.287E+00
RMM:   5     0.709150417986E+03    0.49152E-01   -0.21290E+00  1016   0.162E+00    0.186E+00
RMM:   6     0.709110351113E+03   -0.40067E-01   -0.12601E+00  1028   0.113E+00    0.157E+00
RMM:   7     0.709131438772E+03    0.21088E-01   -0.48824E-01  1001   0.775E-01    0.942E-01
RMM:   8     0.709126977797E+03   -0.44610E-02   -0.25272E-01  1025   0.494E-01    0.626E-01
RMM:   9     0.709117067532E+03   -0.99103E-02   -0.13606E-01  1029   0.346E-01    0.483E-01
RMM:  10     0.709113623794E+03   -0.34437E-02   -0.81559E-02  1029   0.240E-01    0.369E-01
RMM:  11     0.709111621926E+03   -0.20019E-02   -0.48040E-02  1026   0.181E-01    0.319E-01
RMM:  12     0.709111920582E+03    0.29866E-03   -0.26927E-02  1016   0.134E-01    0.173E-01
RMM:  13     0.709110514605E+03   -0.14060E-02   -0.22036E-02   993   0.106E-01    0.115E-01
RMM:  14     0.709109066460E+03   -0.14481E-02   -0.18272E-02   970   0.782E-02    0.863E-02
RMM:  15     0.709107728872E+03   -0.13376E-02   -0.14215E-02   763   0.516E-02    0.847E-02
RMM:  16     0.709106507322E+03   -0.12216E-02   -0.12873E-02   628   0.443E-02    0.709E-02
RMM:  17     0.709105269440E+03   -0.12379E-02   -0.12409E-02   594   0.455E-02    0.542E-02
RMM:  18     0.709103967527E+03   -0.13019E-02   -0.12563E-02   609   0.437E-02    0.258E-02
RMM:  19     0.709102580910E+03   -0.13866E-02   -0.12307E-02   596   0.445E-02    0.260E-02
RMM:  20     0.709101273205E+03   -0.13077E-02   -0.11506E-02   547   0.365E-02    0.357E-02
RMM:  21     0.709100073452E+03   -0.11998E-02   -0.11292E-02   469   0.333E-02    0.320E-02
WARNING in EDDRMM: call to ZHEGV failed, returncode =   6  3 **
RMM:  22     0.709098872852E+03   -0.12006E-02   -0.11253E-02   524   0.357E-02    0.161E-02
RMM:  23     0.709097559209E+03   -0.13136E-02   -0.11412E-02   513   0.365E-02    0.233E-02
RMM:  24     0.709096376798E+03   -0.11824E-02   -0.10678E-02   441   0.314E-02    0.267E-02
RMM:  25     0.709095270731E+03   -0.11061E-02   -0.10519E-02   457   0.325E-02    0.220E-02
RMM:  26     0.709094201996E+03   -0.10687E-02   -0.10306E-02   465   0.329E-02    0.213E-02
RMM:  27     0.709093157971E+03   -0.10440E-02   -0.10211E-02   404   0.296E-02    0.229E-02
RMM:  28     0.709092113344E+03   -0.10446E-02   -0.10081E-02   405   0.269E-02    0.206E-02
RMM:  29     0.709091078590E+03   -0.10348E-02   -0.99342E-03   365   0.263E-02    0.226E-02
RMM:  30     0.709090079087E+03   -0.99950E-03   -0.97443E-03   341   0.263E-02    0.266E-02
RMM:  31     0.709089076222E+03   -0.10029E-02   -0.96344E-03   381   0.288E-02    0.307E-02
RMM:  32     0.709088088701E+03   -0.98752E-03   -0.95590E-03   376   0.286E-02    0.363E-02
RMM:  33     0.709087122044E+03   -0.96666E-03   -0.93730E-03   350   0.264E-02    0.424E-02
RMM:  34     0.709086160960E+03   -0.96108E-03   -0.93209E-03   354   0.257E-02    0.497E-02
RMM:  35     0.709085221716E+03   -0.93924E-03   -0.91742E-03   336   0.261E-02    0.570E-02
RMM:  36     0.709084283790E+03   -0.93793E-03   -0.90469E-03   342   0.261E-02    0.642E-02
RMM:  37     0.709083368549E+03   -0.91524E-03   -0.89436E-03   315   0.251E-02    0.718E-02
RMM:  38     0.709082449734E+03   -0.91881E-03   -0.88804E-03   308   0.250E-02    0.794E-02
RMM:  39     0.709081553835E+03   -0.89590E-03   -0.87417E-03   295   0.243E-02    0.875E-02
RMM:  40     0.709080664051E+03   -0.88978E-03   -0.86700E-03   259   0.222E-02    0.959E-02
RMM:  41     0.709079786936E+03   -0.87712E-03   -0.85757E-03   263   0.217E-02    0.104E-01
RMM:  42     0.709078913409E+03   -0.87353E-03   -0.84759E-03   262   0.214E-02    0.113E-01
RMM:  43     0.709078038797E+03   -0.87461E-03   -0.83961E-03   282   0.221E-02    0.122E-01
RMM:  44     0.709077143578E+03   -0.89522E-03   -0.83360E-03   371   0.247E-02    0.133E-01
RMM:  45     0.709076246750E+03   -0.89683E-03   -0.83105E-03   394   0.299E-02    0.145E-01
RMM:  46     0.709075371799E+03   -0.87495E-03   -0.81786E-03   411   0.288E-02    0.157E-01
RMM:  47     0.709074571058E+03   -0.80074E-03   -0.81232E-03   403   0.271E-02    0.166E-01
RMM:  48     0.709073738013E+03   -0.83305E-03   -0.81037E-03   383   0.270E-02    0.177E-01
RMM:  49     0.709072919125E+03   -0.81889E-03   -0.79512E-03   415   0.286E-02    0.188E-01
RMM:  50     0.709072098485E+03   -0.82064E-03   -0.78762E-03   383   0.277E-02    0.199E-01
RMM:  51     0.709071287660E+03   -0.81083E-03   -0.78962E-03   360   0.270E-02    0.210E-01
RMM:  52     0.709070511815E+03   -0.77584E-03   -0.77747E-03   337   0.237E-02    0.221E-01
RMM:  53     0.709069722944E+03   -0.78887E-03   -0.77073E-03   292   0.220E-02    0.232E-01
RMM:  54     0.709068948180E+03   -0.77476E-03   -0.75597E-03   275   0.212E-02    0.244E-01
RMM:  55     0.709068173235E+03   -0.77495E-03   -0.75676E-03   276   0.220E-02    0.256E-01
RMM:  56     0.709067403008E+03   -0.77023E-03   -0.75251E-03   257   0.206E-02    0.267E-01
RMM:  57     0.709066633280E+03   -0.76973E-03   -0.74474E-03   251   0.205E-02    0.280E-01
RMM:  58     0.709065883296E+03   -0.74998E-03   -0.73853E-03   270   0.202E-02    0.292E-01
RMM:  59     0.709065143054E+03   -0.74024E-03   -0.72830E-03   275   0.202E-02    0.304E-01
RMM:  60     0.709064401476E+03   -0.74158E-03   -0.72753E-03   274   0.210E-02
   3 F= 0.70906440E+03 E0= 0.70898558E+03  d E =-.102456E+02
 curvature:  -2.55 expect dE=-0.336E+01 dE for cont linesearch -0.172E+01
 ZBRENT: increasing intervall
 opt :  10.0000  next Energy=   708.244877 (dE=-0.111E+02)
 bond charge predicted
       N       E                     dE             d eps       ncg     rms          rms(c)
RMM:   1     0.626955568700E+03   -0.82110E+02   -0.45517E+03   699   0.109E+02    0.135E+01
RMM:   2     0.656274933047E+03    0.29319E+02    0.47895E+02   750   0.478E+01    0.932E+00
RMM:   3     0.702987891734E+03    0.46713E+02   -0.10599E+02   912   0.134E+01    0.850E+00
RMM:   4     0.709240591872E+03    0.62527E+01    0.44709E+01   854   0.113E+01    0.526E+00
RMM:   5     0.706275365147E+03   -0.29652E+01   -0.11678E+01  1034   0.359E+00    0.448E+00
RMM:   6     0.706333078001E+03    0.57713E-01   -0.55232E+00  1020   0.230E+00    0.365E+00
RMM:   7     0.706490551910E+03    0.15747E+00   -0.22048E+00  1021   0.160E+00    0.223E+00
RMM:   8     0.706403434936E+03   -0.87117E-01   -0.15108E+00  1040   0.113E+00    0.199E+00
RMM:   9     0.706433279978E+03    0.29845E-01   -0.59726E-01  1038   0.770E-01    0.132E+00
RMM:  10     0.706436672521E+03    0.33925E-02   -0.35759E-01  1040   0.546E-01    0.846E-01
RMM:  11     0.706424712674E+03   -0.11960E-01   -0.17162E-01  1032   0.421E-01    0.589E-01
RMM:  12     0.706425961867E+03    0.12492E-02   -0.82458E-02  1044   0.277E-01    0.397E-01
RMM:  13     0.706426822367E+03    0.86050E-03   -0.40180E-02  1014   0.204E-01    0.277E-01
RMM:  14     0.706426595601E+03   -0.22677E-03   -0.20690E-02  1027   0.126E-01    0.193E-01
RMM:  15     0.706425924948E+03   -0.67065E-03   -0.14255E-02  1009   0.936E-02    0.140E-01
RMM:  16     0.706425406102E+03   -0.51885E-03   -0.10906E-02   989   0.783E-02    0.107E-01
RMM:  17     0.706424885663E+03   -0.52044E-03   -0.77348E-03   878   0.588E-02    0.974E-02
RMM:  18     0.706424460565E+03   -0.42510E-03   -0.54567E-03   739   0.441E-02    0.626E-02
RMM:  19     0.706423889248E+03   -0.57132E-03   -0.48493E-03   715   0.420E-02    0.425E-02
RMM:  20     0.706423144099E+03   -0.74515E-03   -0.47871E-03   732   0.411E-02    0.318E-02
RMM:  21     0.706422464082E+03   -0.68002E-03   -0.40207E-03   571   0.351E-02    0.242E-02
RMM:  22     0.706421915072E+03   -0.54901E-03   -0.38984E-03   511   0.293E-02    0.201E-02
RMM:  23     0.706421210110E+03   -0.70496E-03   -0.41416E-03   561   0.325E-02    0.131E-02
RMM:  24     0.706420462452E+03   -0.74766E-03   -0.40382E-03   603   0.335E-02    0.201E-02
RMM:  25     0.706419861553E+03   -0.60090E-03   -0.38572E-03   524   0.276E-02    0.238E-02
RMM:  26     0.706419338016E+03   -0.52354E-03   -0.35857E-03   473   0.259E-02    0.213E-02
RMM:  27     0.706418788817E+03   -0.54920E-03   -0.37376E-03   515   0.296E-02    0.106E-02
RMM:  28     0.706418060467E+03   -0.72835E-03   -0.39901E-03   583   0.320E-02    0.152E-02
RMM:  29     0.706417547567E+03   -0.51290E-03   -0.35953E-03   489   0.259E-02    0.218E-02
RMM:  30     0.706417178510E+03   -0.36906E-03   -0.34252E-03   427   0.241E-02    0.222E-02
RMM:  31     0.706416835137E+03   -0.34337E-03   -0.33616E-03   446   0.255E-02    0.258E-02
RMM:  32     0.706416491997E+03   -0.34314E-03   -0.33329E-03   422   0.251E-02    0.292E-02
RMM:  33     0.706416153390E+03   -0.33861E-03   -0.33181E-03   377   0.248E-02    0.321E-02
RMM:  34     0.706415814824E+03   -0.33857E-03   -0.33135E-03   352   0.209E-02    0.356E-02
RMM:  35     0.706415487090E+03   -0.32773E-03   -0.32318E-03   298   0.181E-02    0.383E-02
RMM:  36     0.706415162339E+03   -0.32475E-03   -0.31634E-03   307   0.184E-02    0.421E-02
RMM:  37     0.706414843190E+03   -0.31915E-03   -0.31213E-03   288   0.185E-02    0.459E-02
RMM:  38     0.706414526645E+03   -0.31654E-03   -0.30952E-03   307   0.195E-02    0.499E-02
RMM:  39     0.706414210234E+03   -0.31641E-03   -0.30893E-03   292   0.184E-02    0.540E-02
RMM:  40     0.706413901301E+03   -0.30893E-03   -0.30057E-03   277   0.169E-02    0.580E-02
RMM:  41     0.706413588109E+03   -0.31319E-03   -0.30296E-03   268   0.162E-02    0.619E-02
RMM:  42     0.706413277672E+03   -0.31044E-03   -0.29723E-03   283   0.169E-02    0.653E-02
RMM:  43     0.706412948981E+03   -0.32869E-03   -0.29120E-03   316   0.183E-02    0.679E-02
RMM:  44     0.706412545753E+03   -0.40323E-03   -0.30361E-03   446   0.212E-02    0.688E-02
RMM:  45     0.706412216653E+03   -0.32910E-03   -0.29137E-03   388   0.217E-02    0.735E-02
RMM:  46     0.706411916591E+03   -0.30006E-03   -0.28848E-03   368   0.224E-02    0.791E-02
RMM:  47     0.706411628831E+03   -0.28776E-03   -0.28420E-03   417   0.248E-02    0.842E-02
RMM:  48     0.706411336564E+03   -0.29227E-03   -0.28619E-03   389   0.234E-02    0.898E-02
RMM:  49     0.706411051544E+03   -0.28502E-03   -0.27855E-03   355   0.209E-02    0.959E-02
RMM:  50     0.706410760644E+03   -0.29090E-03   -0.27941E-03   318   0.195E-02    0.103E-01
RMM:  51     0.706410474998E+03   -0.28565E-03   -0.27940E-03   283   0.181E-02    0.110E-01
RMM:  52     0.706410200015E+03   -0.27498E-03   -0.27133E-03   300   0.184E-02    0.117E-01
RMM:  53     0.706409921081E+03   -0.27893E-03   -0.27284E-03   265   0.175E-02    0.124E-01
RMM:  54     0.706409648241E+03   -0.27284E-03   -0.26688E-03   273   0.179E-02    0.131E-01
RMM:  55     0.706409369946E+03   -0.27830E-03   -0.27235E-03   267   0.168E-02    0.139E-01
RMM:  56     0.706409097163E+03   -0.27278E-03   -0.26711E-03   262   0.167E-02    0.146E-01
RMM:  57     0.706408834115E+03   -0.26305E-03   -0.26582E-03   264   0.167E-02    0.154E-01
RMM:  58     0.706408562928E+03   -0.27119E-03   -0.26513E-03   269   0.178E-02    0.161E-01
RMM:  59     0.706408297967E+03   -0.26496E-03   -0.25944E-03   270   0.174E-02    0.169E-01
RMM:  60     0.706408028529E+03   -0.26944E-03   -0.26333E-03   270   0.179E-02
   4 F= 0.70640803E+03 E0= 0.70633431E+03  d E =-.129020E+02
 curvature:  -1.21 expect dE=-0.340E+01 dE for cont linesearch -0.904E-01
 trial: gam= 0.94575 g(F)=  0.280E+01 g(S)=  0.000E+00 ort =-0.511E+00 (trialstep = 0.197E+01)
 search vector abs. value=  0.497E+01
 bond charge predicted
       N       E                     dE             d eps       ncg     rms          rms(c)
RMM:   1     0.696187003819E+03   -0.10221E+02   -0.72969E+02   650   0.410E+01    0.688E+00
RMM:   2     0.704521670681E+03    0.83347E+01    0.12967E+02   691   0.218E+01    0.729E+00
RMM:   3     0.703389162499E+03   -0.11325E+01   -0.93571E+00   979   0.408E+00    0.382E+00
RMM:   4     0.703601658915E+03    0.21250E+00   -0.37707E+00  1011   0.204E+00    0.250E+00
RMM:   5     0.703565855103E+03   -0.35804E-01   -0.23829E+00  1042   0.137E+00    0.173E+00
RMM:   6     0.703555818344E+03   -0.10037E-01   -0.89092E-01  1049   0.919E-01    0.115E+00
RMM:   7     0.703558217225E+03    0.23989E-02   -0.37899E-01  1043   0.596E-01    0.959E-01
RMM:   8     0.703569946458E+03    0.11729E-01   -0.15783E-01  1040   0.426E-01    0.557E-01
RMM:   9     0.703559605031E+03   -0.10341E-01   -0.12019E-01  1038   0.308E-01    0.569E-01
RMM:  10     0.703563748510E+03    0.41435E-02   -0.36848E-02  1033   0.202E-01    0.357E-01
RMM:  11     0.703564193337E+03    0.44483E-03   -0.27172E-02  1036   0.148E-01    0.223E-01
RMM:  12     0.703563219868E+03   -0.97347E-03   -0.18235E-02  1034   0.120E-01    0.175E-01
RMM:  13     0.703563392915E+03    0.17305E-03   -0.92279E-03  1006   0.843E-02    0.139E-01
RMM:  14     0.703563236038E+03   -0.15688E-03   -0.60593E-03   895   0.602E-02    0.109E-01
RMM:  15     0.703563108071E+03   -0.12797E-03   -0.36358E-03   761   0.450E-02    0.684E-02
RMM:  16     0.703562803384E+03   -0.30469E-03   -0.32086E-03   655   0.381E-02    0.493E-02
RMM:  17     0.703562435736E+03   -0.36765E-03   -0.32776E-03   687   0.386E-02    0.208E-02
RMM:  18     0.703562061401E+03   -0.37434E-03   -0.28558E-03   564   0.334E-02    0.249E-02
RMM:  19     0.703561761956E+03   -0.29944E-03   -0.23378E-03   537   0.283E-02    0.270E-02
RMM:  20     0.703561488972E+03   -0.27298E-03   -0.24121E-03   518   0.279E-02    0.285E-02
RMM:  21     0.703561209698E+03   -0.27927E-03   -0.23976E-03   551   0.284E-02    0.226E-02
RMM:  22     0.703560883600E+03   -0.32610E-03   -0.25382E-03   502   0.279E-02    0.164E-02
RMM:  23     0.703560569455E+03   -0.31415E-03   -0.24204E-03   492   0.269E-02    0.220E-02
RMM:  24     0.703560318276E+03   -0.25118E-03   -0.21866E-03   477   0.252E-02    0.225E-02
RMM:  25     0.703560092007E+03   -0.22627E-03   -0.22151E-03   443   0.245E-02    0.197E-02
RMM:  26     0.703559874244E+03   -0.21776E-03   -0.21285E-03   421   0.232E-02    0.201E-02
RMM:  27     0.703559651557E+03   -0.22269E-03   -0.21551E-03   391   0.227E-02    0.218E-02
RMM:  28     0.703559433615E+03   -0.21794E-03   -0.21237E-03   351   0.191E-02    0.217E-02
RMM:  29     0.703559221038E+03   -0.21258E-03   -0.20840E-03   337   0.190E-02    0.230E-02
RMM:  30     0.703559008692E+03   -0.21235E-03   -0.20649E-03   326   0.193E-02    0.240E-02
RMM:  31     0.703558798932E+03   -0.20976E-03   -0.20502E-03   330   0.192E-02    0.255E-02
RMM:  32     0.703558590209E+03   -0.20872E-03   -0.20435E-03   324   0.188E-02    0.276E-02
RMM:  33     0.703558379917E+03   -0.21029E-03   -0.20261E-03   330   0.183E-02    0.300E-02
RMM:  34     0.703558174933E+03   -0.20498E-03   -0.20066E-03   280   0.161E-02    0.328E-02
RMM:  35     0.703557973637E+03   -0.20130E-03   -0.19628E-03   282   0.164E-02    0.359E-02
RMM:  36     0.703557773690E+03   -0.19995E-03   -0.19610E-03   285   0.172E-02    0.394E-02
RMM:  37     0.703557574673E+03   -0.19902E-03   -0.19474E-03   278   0.180E-02    0.429E-02
RMM:  38     0.703557377555E+03   -0.19712E-03   -0.19163E-03   296   0.182E-02    0.470E-02
RMM:  39     0.703557183922E+03   -0.19363E-03   -0.18978E-03   280   0.171E-02    0.513E-02
RMM:  40     0.703556986855E+03   -0.19707E-03   -0.19288E-03   282   0.169E-02    0.556E-02
RMM:  41     0.703556797554E+03   -0.18930E-03   -0.18355E-03   277   0.165E-02    0.602E-02
RMM:  42     0.703556610518E+03   -0.18704E-03   -0.18291E-03   272   0.164E-02    0.648E-02
RMM:  43     0.703556424447E+03   -0.18607E-03   -0.18168E-03   273   0.171E-02    0.696E-02
RMM:  44     0.703556236864E+03   -0.18758E-03   -0.18280E-03   263   0.177E-02    0.746E-02
RMM:  45     0.703556051223E+03   -0.18564E-03   -0.18212E-03   265   0.165E-02    0.797E-02
RMM:  46     0.703555866664E+03   -0.18456E-03   -0.18136E-03   263   0.165E-02    0.848E-02
RMM:  47     0.703555706099E+03   -0.16057E-03   -0.18166E-03   289   0.169E-02    0.899E-02
RMM:  48     0.703555513010E+03   -0.19309E-03   -0.18305E-03   314   0.179E-02    0.953E-02
RMM:  49     0.703555313151E+03   -0.19986E-03   -0.18290E-03   330   0.183E-02    0.101E-01
RMM:  50     0.703555082936E+03   -0.23022E-03   -0.18315E-03   387   0.199E-02    0.105E-01
RMM:  51     0.703554848634E+03   -0.23430E-03   -0.18470E-03   432   0.221E-02    0.108E-01
RMM:  52     0.703554669204E+03   -0.17943E-03   -0.17517E-03   359   0.207E-02    0.111E-01
RMM:  53     0.703554488533E+03   -0.18067E-03   -0.17599E-03   406   0.234E-02    0.116E-01
RMM:  54     0.703554309960E+03   -0.17857E-03   -0.17491E-03   391   0.224E-02    0.120E-01
RMM:  55     0.703554137874E+03   -0.17209E-03   -0.16720E-03   348   0.207E-02    0.125E-01
RMM:  56     0.703553959962E+03   -0.17791E-03   -0.17330E-03   345   0.201E-02    0.129E-01
RMM:  57     0.703553789629E+03   -0.17033E-03   -0.16724E-03   321   0.182E-02    0.134E-01
RMM:  58     0.703553617463E+03   -0.17217E-03   -0.16751E-03   311   0.181E-02    0.138E-01
RMM:  59     0.703553449165E+03   -0.16830E-03   -0.16509E-03   282   0.170E-02    0.143E-01
RMM:  60     0.703553280476E+03   -0.16869E-03   -0.16559E-03   285   0.171E-02
   5 F= 0.70355328E+03 E0= 0.70345788E+03  d E =-.285475E+01
 trial-energy change:   -2.854748  1 .order   -2.924176   -4.577686   -1.270667
 step:   2.9055(harm=  2.7329)  dis= 0.16860  next Energy=   703.260897 (dE=-0.315E+01)
 bond charge predicted
       N       E                     dE             d eps       ncg     rms          rms(c)
RMM:   1     0.701383480980E+03   -0.21700E+01   -0.16642E+02   646   0.196E+01    0.229E+00
RMM:   2     0.703589767918E+03    0.22063E+01    0.15485E+01   709   0.741E+00    0.159E+00
RMM:   3     0.703280499963E+03   -0.30927E+00   -0.26472E+00  1000   0.172E+00    0.103E+00
RMM:   4     0.703259771593E+03   -0.20728E-01   -0.60768E-01  1022   0.838E-01    0.745E-01
RMM:   5     0.703254344320E+03   -0.54273E-02   -0.24148E-01  1051   0.516E-01    0.518E-01
RMM:   6     0.703246010372E+03   -0.83339E-02   -0.13919E-01  1056   0.345E-01    0.596E-01
RMM:   7     0.703252022552E+03    0.60122E-02   -0.44416E-02  1035   0.235E-01    0.321E-01
RMM:   8     0.703250163344E+03   -0.18592E-02   -0.31570E-02  1027   0.163E-01    0.249E-01
RMM:   9     0.703248657441E+03   -0.15059E-02   -0.22576E-02  1029   0.138E-01    0.216E-01
RMM:  10     0.703248575232E+03   -0.82210E-04   -0.12294E-02  1020   0.975E-02    0.237E-01
RMM:  11     0.703248901452E+03    0.32622E-03   -0.50792E-03   904   0.623E-02    0.214E-01
RMM:  12     0.703248924728E+03    0.23276E-04   -0.31912E-03   756   0.458E-02    0.200E-01
RMM:  13     0.703248959359E+03    0.34631E-04   -0.25502E-03   726   0.419E-02    0.168E-01
RMM:  14     0.703248857579E+03   -0.10178E-03   -0.64975E-03   937   0.624E-02    0.535E-02
RMM:  15     0.703248357591E+03   -0.49999E-03   -0.54246E-03   720   0.412E-02    0.821E-02
RMM:  16     0.703248133328E+03   -0.22426E-03   -0.31552E-03   497   0.307E-02    0.954E-02
RMM:  17     0.703247985931E+03   -0.14740E-03   -0.23591E-03   536   0.331E-02    0.102E-01
RMM:  18     0.703247878987E+03   -0.10694E-03   -0.21278E-03   602   0.337E-02    0.937E-02
RMM:  19     0.703247754747E+03   -0.12424E-03   -0.16186E-03   490   0.274E-02    0.921E-02
RMM:  20     0.703247600696E+03   -0.15405E-03   -0.15960E-03   456   0.235E-02    0.957E-02
RMM:  21     0.703247458550E+03   -0.14215E-03   -0.15275E-03   434   0.246E-02    0.987E-02
RMM:  22     0.703247316588E+03   -0.14196E-03   -0.14801E-03   459   0.245E-02    0.101E-01
RMM:  23     0.703247159175E+03   -0.15741E-03   -0.15404E-03   421   0.237E-02    0.104E-01
RMM:  24     0.703247027426E+03   -0.13175E-03   -0.14080E-03   398   0.206E-02    0.105E-01
RMM:  25     0.703246886590E+03   -0.14084E-03   -0.13958E-03   345   0.193E-02    0.108E-01
RMM:  26     0.703246761221E+03   -0.12537E-03   -0.13526E-03   348   0.192E-02    0.109E-01
RMM:  27     0.703246620950E+03   -0.14027E-03   -0.13743E-03   303   0.191E-02    0.112E-01
RMM:  28     0.703246487503E+03   -0.13345E-03   -0.13882E-03   330   0.195E-02    0.112E-01
RMM:  29     0.703246349058E+03   -0.13845E-03   -0.13701E-03   298   0.185E-02    0.114E-01
RMM:  30     0.703246207527E+03   -0.14153E-03   -0.13781E-03   292   0.175E-02    0.116E-01
RMM:  31     0.703246082997E+03   -0.12453E-03   -0.13748E-03   315   0.181E-02    0.116E-01
RMM:  32     0.703245959495E+03   -0.12350E-03   -0.12788E-03   324   0.181E-02    0.116E-01
RMM:  33     0.703245821497E+03   -0.13800E-03   -0.13094E-03   269   0.178E-02    0.118E-01
RMM:  34     0.703245678965E+03   -0.14253E-03   -0.13189E-03   306   0.188E-02    0.121E-01
RMM:  35     0.703245558204E+03   -0.12076E-03   -0.13345E-03   298   0.186E-02    0.121E-01
RMM:  36     0.703245432890E+03   -0.12531E-03   -0.13416E-03   317   0.177E-02    0.121E-01
RMM:  37     0.703245306546E+03   -0.12634E-03   -0.12757E-03   311   0.183E-02    0.122E-01
RMM:  38     0.703245172172E+03   -0.13437E-03   -0.12711E-03   312   0.184E-02    0.124E-01
RMM:  39     0.703245038402E+03   -0.13377E-03   -0.13257E-03   313   0.189E-02    0.126E-01
RMM:  40     0.703244909654E+03   -0.12875E-03   -0.12307E-03   325   0.207E-02    0.128E-01
RMM:  41     0.703244791879E+03   -0.11777E-03   -0.12938E-03   348   0.193E-02    0.128E-01
RMM:  42     0.703244670231E+03   -0.12165E-03   -0.12949E-03   332   0.188E-02    0.128E-01
RMM:  43     0.703244547132E+03   -0.12310E-03   -0.12654E-03   331   0.190E-02    0.129E-01
RMM:  44     0.703244430121E+03   -0.11701E-03   -0.12175E-03   374   0.207E-02    0.129E-01
RMM:  45     0.703244310974E+03   -0.11915E-03   -0.12728E-03   403   0.218E-02    0.129E-01
RMM:  46     0.703244179150E+03   -0.13182E-03   -0.12735E-03   384   0.212E-02    0.129E-01
RMM:  47     0.703244042828E+03   -0.13632E-03   -0.12990E-03   447   0.234E-02    0.130E-01
RMM:  48     0.703243976093E+03   -0.66735E-04   -0.16256E-03   509   0.282E-02    0.112E-01
RMM:  49     0.703243713922E+03   -0.26217E-03   -0.28817E-03   689   0.397E-02    0.108E-01
RMM:  50     0.703243448200E+03   -0.26572E-03   -0.23631E-03   577   0.316E-02    0.121E-01
RMM:  51     0.703243322936E+03   -0.12526E-03   -0.15446E-03   437   0.257E-02    0.123E-01
RMM:  52     0.703243226473E+03   -0.96463E-04   -0.20928E-03   638   0.385E-02    0.113E-01
RMM:  53     0.703243090395E+03   -0.13608E-03   -0.12526E-03   450   0.269E-02    0.119E-01
RMM:  54     0.703242955206E+03   -0.13519E-03   -0.13225E-03   420   0.210E-02    0.123E-01
RMM:  55     0.703242826695E+03   -0.12851E-03   -0.12527E-03   328   0.183E-02    0.127E-01
RMM:  56     0.703242711109E+03   -0.11559E-03   -0.11556E-03   368   0.212E-02    0.132E-01
RMM:  57     0.703242562687E+03   -0.14842E-03   -0.13501E-03   378   0.212E-02    0.139E-01
RMM:  58     0.703242420168E+03   -0.14252E-03   -0.13335E-03   332   0.185E-02    0.147E-01
RMM:  59     0.703242294651E+03   -0.12552E-03   -0.12469E-03   297   0.157E-02    0.153E-01
RMM:  60     0.703242179420E+03   -0.11523E-03   -0.12313E-03   253   0.142E-02
   6 F= 0.70324218E+03 E0= 0.70314429E+03  d E =-.316585E+01
 curvature:  -2.78 expect dE=-0.591E+00 dE for cont linesearch -0.225E-03
 trial: gam=-0.12733 g(F)=  0.213E+00 g(S)=  0.000E+00 ort = 0.201E-01 (trialstep = 0.216E+01)
 search vector abs. value=  0.288E+00
 bond charge predicted
       N       E                     dE             d eps       ncg     rms          rms(c)
RMM:   1     0.702123588306E+03   -0.11187E+01   -0.53646E+01   650   0.114E+01    0.124E+00
RMM:   2     0.702948771599E+03    0.82518E+00    0.64864E+00   777   0.459E+00    0.729E-01
RMM:   3     0.702859197171E+03   -0.89574E-01   -0.78007E-01   999   0.105E+00    0.710E-01
RMM:   4     0.702855192306E+03   -0.40049E-02   -0.21449E-01  1045   0.493E-01    0.404E-01
RMM:   5     0.702849310096E+03   -0.58822E-02   -0.10478E-01  1023   0.328E-01    0.415E-01
RMM:   6     0.702851448096E+03    0.21380E-02   -0.43451E-02  1026   0.230E-01    0.218E-01
RMM:   7     0.702849818269E+03   -0.16298E-02   -0.29483E-02  1047   0.156E-01    0.208E-01
RMM:   8     0.702850289146E+03    0.47088E-03   -0.90080E-03  1012   0.102E-01    0.112E-01
RMM:   9     0.702849758880E+03   -0.53027E-03   -0.67493E-03   994   0.740E-02    0.984E-02
RMM:  10     0.702849625810E+03   -0.13307E-03   -0.35484E-03   866   0.513E-02    0.726E-02
RMM:  11     0.702849607827E+03   -0.17983E-04   -0.30010E-03   790   0.452E-02    0.670E-02
RMM:  12     0.702849621797E+03    0.13970E-04   -0.16524E-03   640   0.379E-02    0.461E-02
RMM:  13     0.702849524061E+03   -0.97736E-04   -0.15041E-03   530   0.311E-02    0.265E-02
RMM:  14     0.702849388565E+03   -0.13550E-03   -0.15373E-03   542   0.287E-02    0.140E-02
RMM:  15     0.702849242299E+03   -0.14627E-03   -0.15035E-03   508   0.286E-02    0.210E-02
RMM:  16     0.702849110043E+03   -0.13226E-03   -0.13261E-03   459   0.237E-02    0.291E-02
RMM:  17     0.702848991906E+03   -0.11814E-03   -0.12326E-03   451   0.234E-02    0.321E-02
RMM:  18     0.702848878693E+03   -0.11321E-03   -0.11637E-03   438   0.226E-02    0.335E-02
RMM:  19     0.702848757540E+03   -0.12115E-03   -0.11612E-03   413   0.219E-02    0.389E-02
RMM:  20     0.702848642200E+03   -0.11534E-03   -0.11688E-03   385   0.210E-02    0.416E-02
RMM:  21     0.702848530547E+03   -0.11165E-03   -0.11332E-03   397   0.211E-02    0.431E-02
RMM:  22     0.702848419598E+03   -0.11095E-03   -0.10936E-03   375   0.192E-02    0.455E-02
RMM:  23     0.702848307236E+03   -0.11236E-03   -0.11056E-03   316   0.176E-02    0.483E-02
RMM:  24     0.702848203895E+03   -0.10334E-03   -0.10533E-03   346   0.188E-02    0.494E-02
RMM:  25     0.702848094195E+03   -0.10970E-03   -0.10844E-03   316   0.188E-02    0.514E-02
RMM:  26     0.702847983488E+03   -0.11071E-03   -0.10818E-03   317   0.179E-02    0.540E-02
RMM:  27     0.702847876125E+03   -0.10736E-03   -0.11035E-03   341   0.174E-02    0.547E-02
RMM:  28     0.702847782077E+03   -0.94048E-04   -0.10661E-03   385   0.177E-02    0.507E-02
RMM:  29     0.702847687559E+03   -0.94518E-04   -0.12023E-03   404   0.200E-02    0.388E-02
RMM:  30     0.702847572394E+03   -0.11517E-03   -0.12145E-03   421   0.254E-02    0.325E-02
RMM:  31     0.702847454093E+03   -0.11830E-03   -0.11378E-03   461   0.256E-02    0.341E-02
RMM:  32     0.702847340807E+03   -0.11329E-03   -0.10961E-03   408   0.216E-02    0.369E-02
RMM:  33     0.702847229845E+03   -0.11096E-03   -0.10919E-03   346   0.181E-02    0.399E-02
RMM:  34     0.702847118442E+03   -0.11140E-03   -0.10839E-03   340   0.188E-02    0.437E-02
RMM:  35     0.702847004305E+03   -0.11414E-03   -0.11137E-03   335   0.194E-02    0.484E-02
RMM:  36     0.702846891925E+03   -0.11238E-03   -0.10995E-03   314   0.176E-02    0.531E-02
RMM:  37     0.702846786035E+03   -0.10589E-03   -0.10382E-03   285   0.162E-02    0.583E-02
RMM:  38     0.702846676518E+03   -0.10952E-03   -0.10766E-03   279   0.162E-02    0.635E-02
RMM:  39     0.702846572320E+03   -0.10420E-03   -0.10312E-03   284   0.154E-02    0.686E-02
RMM:  40     0.702846465925E+03   -0.10639E-03   -0.10451E-03   273   0.147E-02    0.738E-02
RMM:  41     0.702846362150E+03   -0.10378E-03   -0.10296E-03   263   0.144E-02    0.787E-02
RMM:  42     0.702846257384E+03   -0.10477E-03   -0.10349E-03   261   0.152E-02    0.838E-02
RMM:  43     0.702846153245E+03   -0.10414E-03   -0.10233E-03   269   0.153E-02    0.889E-02
RMM:  44     0.702846046125E+03   -0.10712E-03   -0.10489E-03   272   0.156E-02    0.941E-02
RMM:  45     0.702845947573E+03   -0.98553E-04   -0.96867E-04   257   0.152E-02
   7 F= 0.70284595E+03 E0= 0.70274572E+03  d E =-.396232E+00
 trial-energy change:   -0.396232  1 .order   -0.390065   -0.454652   -0.325479
 step:   5.3465(harm=  7.6046)  dis= 0.05316  next Energy=   702.586206 (dE=-0.656E+00)
 bond charge predicted
       N       E                     dE             d eps       ncg     rms          rms(c)
RMM:   1     0.701016954114E+03   -0.18291E+01   -0.11607E+02   649   0.168E+01    0.183E+00
RMM:   2     0.702759336917E+03    0.17424E+01    0.13938E+01   752   0.667E+00    0.110E+00
RMM:   3     0.702531192553E+03   -0.22814E+00   -0.16844E+00   999   0.155E+00    0.971E-01
RMM:   4     0.702516049295E+03   -0.15143E-01   -0.45989E-01  1040   0.709E-01    0.667E-01
RMM:   5     0.702510957258E+03   -0.50920E-02   -0.19832E-01  1027   0.479E-01    0.508E-01
RMM:   6     0.702509777281E+03   -0.11800E-02   -0.99811E-02  1029   0.335E-01    0.364E-01
RMM:   7     0.702509483025E+03   -0.29426E-03   -0.46628E-02  1036   0.217E-01    0.232E-01
RMM:   8     0.702509089669E+03   -0.39336E-03   -0.18641E-02  1035   0.141E-01    0.157E-01
RMM:   9     0.702508512971E+03   -0.57670E-03   -0.97620E-03  1026   0.961E-02    0.130E-01
RMM:  10     0.702507985752E+03   -0.52722E-03   -0.67353E-03   999   0.737E-02    0.116E-01
RMM:  11     0.702508151703E+03    0.16595E-03   -0.35548E-03   905   0.588E-02    0.538E-02
RMM:  12     0.702508035796E+03   -0.11591E-03   -0.28192E-03   761   0.431E-02    0.386E-02
RMM:  13     0.702507905926E+03   -0.12987E-03   -0.19766E-03   627   0.355E-02    0.295E-02
RMM:  14     0.702507746165E+03   -0.15976E-03   -0.17257E-03   561   0.315E-02    0.298E-02
RMM:  15     0.702507616679E+03   -0.12949E-03   -0.14184E-03   501   0.282E-02    0.258E-02
RMM:  16     0.702507493556E+03   -0.12312E-03   -0.12927E-03   512   0.267E-02    0.227E-02
RMM:  17     0.702507361143E+03   -0.13241E-03   -0.13783E-03   491   0.252E-02    0.151E-02
RMM:  18     0.702507225805E+03   -0.13534E-03   -0.13408E-03   467   0.228E-02    0.632E-03
RMM:  19     0.702507094133E+03   -0.13167E-03   -0.12457E-03   432   0.218E-02    0.513E-03
RMM:  20     0.702506961419E+03   -0.13271E-03   -0.12592E-03   424   0.232E-02    0.747E-03
RMM:  21     0.702506842423E+03   -0.11900E-03   -0.11580E-03   411   0.214E-02    0.843E-03
RMM:  22     0.702506726874E+03   -0.11555E-03   -0.11315E-03   392   0.224E-02    0.107E-02
RMM:  23     0.702506603720E+03   -0.12315E-03   -0.12027E-03   367   0.203E-02    0.134E-02
RMM:  24     0.702506488233E+03   -0.11549E-03   -0.11298E-03   339   0.183E-02    0.158E-02
RMM:  25     0.702506371355E+03   -0.11688E-03   -0.11476E-03   328   0.176E-02    0.180E-02
RMM:  26     0.702506256200E+03   -0.11515E-03   -0.11313E-03   300   0.174E-02    0.201E-02
RMM:  27     0.702506141323E+03   -0.11488E-03   -0.11267E-03   285   0.163E-02    0.229E-02
RMM:  28     0.702506031352E+03   -0.10997E-03   -0.10771E-03   297   0.169E-02    0.255E-02
RMM:  29     0.702505922583E+03   -0.10877E-03   -0.10650E-03   273   0.162E-02    0.284E-02
RMM:  30     0.702505814554E+03   -0.10803E-03   -0.10595E-03   265   0.159E-02    0.313E-02
RMM:  31     0.702505703655E+03   -0.11090E-03   -0.10882E-03   277   0.159E-02    0.342E-02
RMM:  32     0.702505595309E+03   -0.10835E-03   -0.10646E-03   258   0.149E-02    0.370E-02
RMM:  33     0.702505488816E+03   -0.10649E-03   -0.10479E-03   257   0.150E-02    0.399E-02
RMM:  34     0.702505379186E+03   -0.10963E-03   -0.10777E-03   277   0.160E-02    0.430E-02
RMM:  35     0.702505271546E+03   -0.10764E-03   -0.10597E-03   259   0.150E-02    0.462E-02
RMM:  36     0.702505167317E+03   -0.10423E-03   -0.10218E-03   263   0.150E-02    0.493E-02
RMM:  37     0.702505067125E+03   -0.10019E-03   -0.98439E-04   269   0.160E-02    0.524E-02
RMM:  38     0.702504963614E+03   -0.10351E-03   -0.10177E-03   256   0.156E-02    0.554E-02
RMM:  39     0.702504862800E+03   -0.10081E-03   -0.99115E-04   272   0.159E-02    0.588E-02
RMM:  40     0.702504758359E+03   -0.10444E-03   -0.10240E-03   268   0.153E-02    0.620E-02
RMM:  41     0.702504657126E+03   -0.10123E-03   -0.99743E-04   252   0.150E-02    0.653E-02
RMM:  42     0.702504556288E+03   -0.10084E-03   -0.99433E-04   251   0.150E-02    0.687E-02
RMM:  43     0.702504454852E+03   -0.10144E-03   -0.10011E-03   267   0.159E-02    0.719E-02
RMM:  44     0.702504352350E+03   -0.10250E-03   -0.10112E-03   260   0.158E-02    0.753E-02
RMM:  45     0.702504254755E+03   -0.97595E-04   -0.95940E-04   279   0.164E-02
   8 F= 0.70250425E+03 E0= 0.70240121E+03  d E =-.737925E+00
 curvature:  -4.32 expect dE=-0.109E+00 dE for cont linesearch -0.512E-01
 ZBRENT: increasing intervall
 opt :  11.7182  next Energy=   702.718276 (dE=-0.524E+00)
 bond charge predicted
       N       E                     dE             d eps       ncg     rms          rms(c)
RMM:   1     0.696660899958E+03   -0.58435E+01   -0.46791E+02   652   0.335E+01    0.378E+00
RMM:   2     0.705374049055E+03    0.87131E+01    0.84327E+01   698   0.166E+01    0.303E+00
RMM:   3     0.702662914746E+03   -0.27111E+01   -0.96535E+00   999   0.366E+00    0.289E+00
RMM:   4     0.702782124736E+03    0.11921E+00   -0.21119E+00  1028   0.157E+00    0.160E+00
RMM:   5     0.702761590637E+03   -0.20534E-01   -0.85111E-01  1033   0.979E-01    0.132E+00
RMM:   6     0.702761748760E+03    0.15812E-03   -0.41278E-01  1039   0.668E-01    0.102E+00
RMM:   7     0.702764017451E+03    0.22687E-02   -0.31938E-01  1022   0.514E-01    0.754E-01
RMM:   8     0.702769347388E+03    0.53299E-02   -0.12721E-01  1038   0.354E-01    0.383E-01
RMM:   9     0.702766640214E+03   -0.27072E-02   -0.53254E-02  1046   0.224E-01    0.317E-01
RMM:  10     0.702766456711E+03   -0.18350E-03   -0.24855E-02  1046   0.150E-01    0.231E-01
RMM:  11     0.702765935337E+03   -0.52137E-03   -0.17256E-02  1038   0.122E-01    0.169E-01
RMM:  12     0.702765975069E+03    0.39733E-04   -0.84116E-03  1016   0.832E-02    0.911E-02
WARNING in EDDRMM: call to ZHEGV failed, returncode =   6  3 **
RMM:  13     0.702765681800E+03   -0.29327E-03   -0.53543E-03   911   0.561E-02    0.649E-02
RMM:  14     0.702765432708E+03   -0.24909E-03   -0.36264E-03   625   0.400E-02    0.442E-02
RMM:  15     0.702765132978E+03   -0.29973E-03   -0.33691E-03   596   0.364E-02    0.366E-02
RMM:  16     0.702764919681E+03   -0.21330E-03   -0.28061E-03   648   0.395E-02    0.209E-02
RMM:  17     0.702764668456E+03   -0.25122E-03   -0.24798E-03   554   0.347E-02    0.161E-02
RMM:  18     0.702764427150E+03   -0.24131E-03   -0.22916E-03   485   0.281E-02    0.106E-02
RMM:  19     0.702764188704E+03   -0.23845E-03   -0.22701E-03   483   0.259E-02    0.103E-02
RMM:  20     0.702763954644E+03   -0.23406E-03   -0.22264E-03   476   0.259E-02    0.949E-03
RMM:  21     0.702763726428E+03   -0.22822E-03   -0.21754E-03   485   0.262E-02    0.777E-03
RMM:  22     0.702763500960E+03   -0.22547E-03   -0.21160E-03   462   0.244E-02    0.563E-03
RMM:  23     0.702763282663E+03   -0.21830E-03   -0.20373E-03   433   0.235E-02    0.453E-03
RMM:  24     0.702763070923E+03   -0.21174E-03   -0.20238E-03   444   0.249E-02    0.470E-03
RMM:  25     0.702762866921E+03   -0.20400E-03   -0.19750E-03   410   0.230E-02    0.502E-03
RMM:  26     0.702762668911E+03   -0.19801E-03   -0.19281E-03   382   0.218E-02    0.538E-03
RMM:  27     0.702762475229E+03   -0.19368E-03   -0.18955E-03   364   0.213E-02    0.607E-03
RMM:  28     0.702762289085E+03   -0.18614E-03   -0.18233E-03   333   0.199E-02    0.755E-03
RMM:  29     0.702762101486E+03   -0.18760E-03   -0.18369E-03   355   0.208E-02    0.904E-03
RMM:  30     0.702761921052E+03   -0.18043E-03   -0.17645E-03   341   0.203E-02    0.109E-02
RMM:  31     0.702761749296E+03   -0.17176E-03   -0.16809E-03   305   0.175E-02    0.134E-02
RMM:  32     0.702761573950E+03   -0.17535E-03   -0.17187E-03   284   0.170E-02    0.160E-02
RMM:  33     0.702761407741E+03   -0.16621E-03   -0.16285E-03   277   0.166E-02    0.189E-02
RMM:  34     0.702761240115E+03   -0.16763E-03   -0.16448E-03   276   0.175E-02    0.223E-02
RMM:  35     0.702761072314E+03   -0.16780E-03   -0.16463E-03   297   0.179E-02    0.260E-02
RMM:  36     0.702760909832E+03   -0.16248E-03   -0.15923E-03   286   0.171E-02    0.301E-02
RMM:  37     0.702760746937E+03   -0.16289E-03   -0.15992E-03   288   0.172E-02    0.341E-02
RMM:  38     0.702760586948E+03   -0.15999E-03   -0.15688E-03   271   0.164E-02    0.384E-02
RMM:  39     0.702760433689E+03   -0.15326E-03   -0.15038E-03   272   0.164E-02    0.427E-02
RMM:  40     0.702760278712E+03   -0.15498E-03   -0.15204E-03   265   0.165E-02    0.470E-02
RMM:  41     0.702760125565E+03   -0.15315E-03   -0.15043E-03   277   0.174E-02    0.516E-02
RMM:  42     0.702759971714E+03   -0.15385E-03   -0.15097E-03   288   0.177E-02    0.561E-02
RMM:  43     0.702759823405E+03   -0.14831E-03   -0.14539E-03   285   0.169E-02    0.606E-02
RMM:  44     0.702759673568E+03   -0.14984E-03   -0.14731E-03   265   0.162E-02    0.653E-02
RMM:  45     0.702759528275E+03   -0.14529E-03   -0.14271E-03   263   0.164E-02    0.701E-02
RMM:  46     0.702759389264E+03   -0.13901E-03   -0.13609E-03   276   0.178E-02    0.752E-02
RMM:  47     0.702759247464E+03   -0.14180E-03   -0.14076E-03   272   0.172E-02    0.805E-02
RMM:  48     0.702759103591E+03   -0.14387E-03   -0.14153E-03   283   0.174E-02    0.854E-02
RMM:  49     0.702758966694E+03   -0.13690E-03   -0.13460E-03   271   0.166E-02    0.904E-02
RMM:  50     0.702758824987E+03   -0.14171E-03   -0.13962E-03   288   0.173E-02    0.953E-02
RMM:  51     0.702758686105E+03   -0.13888E-03   -0.13685E-03   274   0.162E-02    0.100E-01
RMM:  52     0.702758551835E+03   -0.13427E-03   -0.13343E-03   258   0.156E-02    0.106E-01
RMM:  53     0.702758414556E+03   -0.13728E-03   -0.13501E-03   279   0.165E-02    0.111E-01
RMM:  54     0.702758280164E+03   -0.13439E-03   -0.13256E-03   266   0.169E-02    0.116E-01
RMM:  55     0.702758150943E+03   -0.12922E-03   -0.12691E-03   278   0.173E-02    0.121E-01
RMM:  56     0.702758014288E+03   -0.13666E-03   -0.13466E-03   309   0.187E-02    0.126E-01
RMM:  57     0.702757881951E+03   -0.13234E-03   -0.13149E-03   281   0.166E-02    0.131E-01
RMM:  58     0.702757756442E+03   -0.12551E-03   -0.12346E-03   286   0.165E-02    0.137E-01
RMM:  59     0.702757626828E+03   -0.12961E-03   -0.12775E-03   277   0.160E-02    0.142E-01
RMM:  60     0.702757500385E+03   -0.12644E-03   -0.12476E-03   267   0.166E-02
   9 F= 0.70275750E+03 E0= 0.70265050E+03  d E =-.484679E+00
 curvature:  18.02 expect dE= 0.338E+01 dE for cont linesearch  0.134E+01
 ZBRENT: bracketing found
 ZBRENT: interpolating
 opt :   7.1674  next Energy=   702.450967 (dE=-0.791E+00)
 bond charge predicted
       N       E                     dE             d eps       ncg     rms          rms(c)
RMM:   1     0.700213213315E+03   -0.25444E+01   -0.22769E+02   653   0.240E+01    0.289E+00
RMM:   2     0.703519283780E+03    0.33061E+01    0.32493E+01   733   0.102E+01    0.256E+00
RMM:   3     0.702458272068E+03   -0.10610E+01   -0.34313E+00   990   0.239E+00    0.187E+00
RMM:   4     0.702454294434E+03   -0.39776E-02   -0.13086E+00  1032   0.120E+00    0.109E+00
RMM:   5     0.702449017519E+03   -0.52769E-02   -0.42068E-01  1028   0.704E-01    0.741E-01
RMM:   6     0.702437650969E+03   -0.11367E-01   -0.23981E-01  1047   0.480E-01    0.686E-01
RMM:   7     0.702439142512E+03    0.14915E-02   -0.10709E-01  1034   0.333E-01    0.487E-01
RMM:   8     0.702441447607E+03    0.23051E-02   -0.52165E-02  1047   0.230E-01    0.271E-01
RMM:   9     0.702440713585E+03   -0.73402E-03   -0.24654E-02  1047   0.154E-01    0.179E-01
RMM:  10     0.702439692907E+03   -0.10207E-02   -0.12182E-02  1049   0.108E-01    0.137E-01
RMM:  11     0.702439543650E+03   -0.14926E-03   -0.56339E-03  1014   0.695E-02    0.116E-01
RMM:  12     0.702439515701E+03   -0.27949E-04   -0.37104E-03   910   0.554E-02    0.874E-02
RMM:  13     0.702439468263E+03   -0.47438E-04   -0.26299E-03   863   0.515E-02    0.398E-02
RMM:  14     0.702439379396E+03   -0.88868E-04   -0.15372E-03   683   0.371E-02    0.316E-02
RMM:  15     0.702439288129E+03   -0.91267E-04   -0.98771E-04   506   0.282E-02
  10 F= 0.70243929E+03 E0= 0.70233501E+03  d E =-.802891E+00
 curvature:  -0.72 expect dE=-0.180E-01 dE for cont linesearch -0.389E-04
 trial: gam= 0.14688 g(F)=  0.251E-01 g(S)=  0.000E+00 ort = 0.395E-02 (trialstep = 0.316E+01)
 search vector abs. value=  0.325E-01
 bond charge predicted
       N       E                     dE             d eps       ncg     rms          rms(c)
RMM:   1     0.702132630431E+03   -0.30675E+00   -0.13186E+01   662   0.567E+00    0.705E-01
RMM:   2     0.702382211703E+03    0.24958E+00    0.20130E+00   800   0.228E+00    0.466E-01
RMM:   3     0.702372592873E+03   -0.96188E-02   -0.13868E-01  1022   0.485E-01    0.367E-01
RMM:   4     0.702370676875E+03   -0.19160E-02   -0.52686E-02  1036   0.246E-01    0.268E-01
RMM:   5     0.702369661379E+03   -0.10155E-02   -0.31506E-02  1039   0.187E-01    0.266E-01
RMM:   6     0.702371091294E+03    0.14299E-02   -0.12879E-02  1038   0.133E-01    0.106E-01
RMM:   7     0.702370503785E+03   -0.58751E-03   -0.92341E-03  1023   0.891E-02    0.110E-01
RMM:   8     0.702370561565E+03    0.57780E-04   -0.35530E-03   924   0.583E-02    0.749E-02
RMM:   9     0.702370441989E+03   -0.11958E-03   -0.21387E-03   741   0.404E-02    0.726E-02
RMM:  10     0.702370408937E+03   -0.33052E-04   -0.12674E-03   575   0.338E-02    0.564E-02
RMM:  11     0.702370352220E+03   -0.56717E-04   -0.11429E-03   520   0.312E-02    0.402E-02
RMM:  12     0.702370298382E+03   -0.53838E-04   -0.14055E-03   593   0.347E-02    0.181E-02
RMM:  13     0.702370214361E+03   -0.84020E-04   -0.98785E-04   530   0.310E-02
  11 F= 0.70237021E+03 E0= 0.70226508E+03  d E =-.690738E-01
 trial-energy change:   -0.069074  1 .order   -0.067795   -0.081261   -0.054328
 step:   7.0600(harm=  9.5399)  dis= 0.02734  next Energy=   702.334330 (dE=-0.105E+00)
 bond charge predicted
       N       E                     dE             d eps       ncg     rms          rms(c)
RMM:   1     0.701986814683E+03   -0.38348E+00   -0.19814E+01   663   0.699E+00    0.849E-01
WARNING in EDDRMM: call to ZHEGV failed, returncode =   8  4 **
RMM:   2     0.702341919375E+03    0.35510E+00    0.28620E+00   805   0.276E+00    0.565E-01
RMM:   3     0.702325662386E+03   -0.16257E-01   -0.21275E-01  1021   0.594E-01    0.456E-01
RMM:   4     0.702322853652E+03   -0.28087E-02   -0.82319E-02  1039   0.303E-01    0.323E-01
RMM:   5     0.702321510965E+03   -0.13427E-02   -0.45389E-02  1047   0.227E-01    0.286E-01
RMM:   6     0.702322703872E+03    0.11929E-02   -0.19981E-02  1045   0.159E-01    0.119E-01
RMM:   7     0.702321871255E+03   -0.83262E-03   -0.12158E-02  1028   0.105E-01    0.118E-01
RMM:   8     0.702321818772E+03   -0.52484E-04   -0.51538E-03   973   0.681E-02    0.775E-02
RMM:   9     0.702321596614E+03   -0.22216E-03   -0.34566E-03   836   0.482E-02    0.692E-02
RMM:  10     0.702321479848E+03   -0.11677E-03   -0.23816E-03   687   0.386E-02    0.484E-02
RMM:  11     0.702321360548E+03   -0.11930E-03   -0.20052E-03   568   0.354E-02    0.307E-02
RMM:  12     0.702321239290E+03   -0.12126E-03   -0.19680E-03   583   0.361E-02    0.184E-02
RMM:  13     0.702321092740E+03   -0.14655E-03   -0.15458E-03   532   0.324E-02    0.166E-02
RMM:  14     0.702320953916E+03   -0.13882E-03   -0.14149E-03   481   0.272E-02    0.166E-02
RMM:  15     0.702320828662E+03   -0.12525E-03   -0.12714E-03   455   0.257E-02    0.131E-02
RMM:  16     0.702320698790E+03   -0.12987E-03   -0.12877E-03   457   0.232E-02    0.105E-02
RMM:  17     0.702320564633E+03   -0.13416E-03   -0.13198E-03   473   0.241E-02    0.733E-03
RMM:  18     0.702320433223E+03   -0.13141E-03   -0.12843E-03   463   0.234E-02    0.590E-03
RMM:  19     0.702320307331E+03   -0.12589E-03   -0.12314E-03   403   0.202E-02    0.621E-03
RMM:  20     0.702320188162E+03   -0.11917E-03   -0.11687E-03   398   0.209E-02    0.682E-03
RMM:  21     0.702320067998E+03   -0.12016E-03   -0.11771E-03   386   0.210E-02    0.868E-03
RMM:  22     0.702319957223E+03   -0.11078E-03   -0.10809E-03   363   0.200E-02    0.108E-02
RMM:  23     0.702319841615E+03   -0.11561E-03   -0.11321E-03   358   0.196E-02    0.128E-02
RMM:  24     0.702319734481E+03   -0.10713E-03   -0.10478E-03   347   0.182E-02    0.149E-02
RMM:  25     0.702319623196E+03   -0.11129E-03   -0.10917E-03   314   0.167E-02    0.172E-02
RMM:  26     0.702319514812E+03   -0.10838E-03   -0.10648E-03   296   0.145E-02    0.193E-02
RMM:  27     0.702319415376E+03   -0.99436E-04   -0.97379E-04   267   0.145E-02
  12 F= 0.70231942E+03 E0= 0.70221407E+03  d E =-.119873E+00
 curvature:  -5.12 expect dE=-0.576E-01 dE for cont linesearch -0.755E-02
 ZBRENT: increasing intervall
 opt :  14.8562  next Energy=   702.345451 (dE=-0.938E-01)
 bond charge predicted
       N       E                     dE             d eps       ncg     rms          rms(c)
RMM:   1     0.701074830617E+03   -0.12447E+01   -0.78712E+01   661   0.140E+01    0.168E+00
RMM:   2     0.702440466996E+03    0.13656E+01    0.10936E+01   772   0.562E+00    0.112E+00
RMM:   3     0.702368002568E+03   -0.72464E-01   -0.90935E-01  1009   0.125E+00    0.862E-01
RMM:   4     0.702348995701E+03   -0.19007E-01   -0.34978E-01  1038   0.628E-01    0.698E-01
RMM:   5     0.702342878160E+03   -0.61175E-02   -0.17085E-01  1037   0.441E-01    0.574E-01
RMM:   6     0.702347354570E+03    0.44764E-02   -0.77885E-02  1043   0.307E-01    0.283E-01
RMM:   7     0.702345118289E+03   -0.22363E-02   -0.49020E-02  1039   0.210E-01    0.230E-01
RMM:   8     0.702344839804E+03   -0.27849E-03   -0.19667E-02  1037   0.136E-01    0.140E-01
RMM:   9     0.702344084514E+03   -0.75529E-03   -0.11895E-02  1025   0.920E-02    0.107E-01
RMM:  10     0.702343484066E+03   -0.60045E-03   -0.80021E-03   937   0.649E-02    0.889E-02
RMM:  11     0.702343132940E+03   -0.35113E-03   -0.60820E-03   843   0.526E-02    0.546E-02
RMM:  12     0.702342756643E+03   -0.37630E-03   -0.52373E-03   736   0.470E-02    0.393E-02
RMM:  13     0.702342366984E+03   -0.38966E-03   -0.43583E-03   594   0.391E-02    0.214E-02
RMM:  14     0.702341982245E+03   -0.38474E-03   -0.38353E-03   545   0.375E-02    0.181E-02
RMM:  15     0.702341615765E+03   -0.36648E-03   -0.36255E-03   481   0.312E-02    0.146E-02
RMM:  16     0.702341263687E+03   -0.35208E-03   -0.34589E-03   526   0.329E-02    0.128E-02
RMM:  17     0.702340930283E+03   -0.33340E-03   -0.32446E-03   467   0.292E-02    0.115E-02
RMM:  18     0.702340604128E+03   -0.32615E-03   -0.31711E-03   467   0.277E-02    0.866E-03
RMM:  19     0.702340288650E+03   -0.31548E-03   -0.30410E-03   451   0.270E-02    0.526E-03
RMM:  20     0.702339977401E+03   -0.31125E-03   -0.29665E-03   463   0.277E-02    0.363E-03
RMM:  21     0.702339684454E+03   -0.29295E-03   -0.28275E-03   451   0.273E-02    0.544E-03
RMM:  22     0.702339402344E+03   -0.28211E-03   -0.27490E-03   436   0.265E-02    0.713E-03
RMM:  23     0.702339130891E+03   -0.27145E-03   -0.26599E-03   407   0.245E-02    0.981E-03
RMM:  24     0.702338869174E+03   -0.26172E-03   -0.25588E-03   402   0.236E-02    0.133E-02
RMM:  25     0.702338613078E+03   -0.25610E-03   -0.25128E-03   369   0.227E-02    0.167E-02
RMM:  26     0.702338371247E+03   -0.24183E-03   -0.23641E-03   345   0.220E-02    0.210E-02
RMM:  27     0.702338131355E+03   -0.23989E-03   -0.23502E-03   344   0.213E-02    0.253E-02
RMM:  28     0.702337898723E+03   -0.23263E-03   -0.22775E-03   323   0.198E-02    0.303E-02
RMM:  29     0.702337669666E+03   -0.22906E-03   -0.22445E-03   297   0.190E-02    0.357E-02
RMM:  30     0.702337447099E+03   -0.22257E-03   -0.21827E-03   297   0.185E-02    0.414E-02
RMM:  31     0.702337228528E+03   -0.21857E-03   -0.21429E-03   299   0.188E-02    0.472E-02
RMM:  32     0.702337014536E+03   -0.21399E-03   -0.21064E-03   296   0.185E-02    0.531E-02
RMM:  33     0.702336805052E+03   -0.20948E-03   -0.20561E-03   287   0.184E-02    0.591E-02
RMM:  34     0.702336603874E+03   -0.20118E-03   -0.19737E-03   299   0.184E-02    0.658E-02
RMM:  35     0.702336402047E+03   -0.20183E-03   -0.19786E-03   283   0.182E-02    0.726E-02
RMM:  36     0.702336203689E+03   -0.19836E-03   -0.19458E-03   289   0.182E-02    0.794E-02
RMM:  37     0.702336010034E+03   -0.19365E-03   -0.19020E-03   289   0.181E-02    0.864E-02
RMM:  38     0.702335818425E+03   -0.19161E-03   -0.18800E-03   291   0.178E-02    0.936E-02
RMM:  39     0.702335630951E+03   -0.18747E-03   -0.18462E-03   301   0.186E-02    0.101E-01
WARNING in EDDRMM: call to ZHEGV failed, returncode =   6  3 **
RMM:  40     0.702335449091E+03   -0.18186E-03   -0.17807E-03   294   0.176E-02    0.109E-01
RMM:  41     0.702335273701E+03   -0.17539E-03   -0.17172E-03   294   0.174E-02    0.117E-01
RMM:  42     0.702335097859E+03   -0.17584E-03   -0.17246E-03   272   0.172E-02    0.125E-01
RMM:  43     0.702334923445E+03   -0.17441E-03   -0.17127E-03   280   0.181E-02    0.133E-01
RMM:  44     0.702334753482E+03   -0.16996E-03   -0.16750E-03   295   0.183E-02    0.142E-01
RMM:  45     0.702334584431E+03   -0.16905E-03   -0.16627E-03   280   0.175E-02    0.151E-01
RMM:  46     0.702334418567E+03   -0.16586E-03   -0.16211E-03   286   0.172E-02    0.159E-01
RMM:  47     0.702334254508E+03   -0.16406E-03   -0.16093E-03   283   0.174E-02    0.169E-01
RMM:  48     0.702334089782E+03   -0.16473E-03   -0.16105E-03   294   0.180E-02    0.178E-01
RMM:  49     0.702333931595E+03   -0.15819E-03   -0.15712E-03   276   0.172E-02    0.188E-01
RMM:  50     0.702333773858E+03   -0.15774E-03   -0.15626E-03   286   0.179E-02    0.197E-01
RMM:  51     0.702333614221E+03   -0.15964E-03   -0.15742E-03   292   0.174E-02    0.207E-01
RMM:  52     0.702333457477E+03   -0.15674E-03   -0.15236E-03   264   0.169E-02    0.217E-01
RMM:  53     0.702333303515E+03   -0.15396E-03   -0.14933E-03   267   0.175E-02    0.228E-01
RMM:  54     0.702333150492E+03   -0.15302E-03   -0.14920E-03   283   0.185E-02    0.238E-01
RMM:  55     0.702332996450E+03   -0.15404E-03   -0.15023E-03   291   0.186E-02    0.248E-01
RMM:  56     0.702332843065E+03   -0.15339E-03   -0.14646E-03   298   0.179E-02    0.259E-01
RMM:  57     0.702332696108E+03   -0.14696E-03   -0.13904E-03   290   0.175E-02    0.270E-01
RMM:  58     0.702332540689E+03   -0.15542E-03   -0.14599E-03   267   0.172E-02    0.280E-01
RMM:  59     0.702332396266E+03   -0.14442E-03   -0.13980E-03   261   0.176E-02    0.291E-01
RMM:  60     0.702332250123E+03   -0.14614E-03   -0.14353E-03   284   0.184E-02
  13 F= 0.70233225E+03 E0= 0.70222864E+03  d E =-.107038E+00
 curvature:  17.67 expect dE= 0.865E+00 dE for cont linesearch  0.963E-01
 ZBRENT: bracketing found
 ZBRENT: interpolating
 opt :   9.7267  next Energy=   702.310187 (dE=-0.129E+00)
 bond charge predicted
       N       E                     dE             d eps       ncg     rms          rms(c)
RMM:   1     0.701759614813E+03   -0.57278E+00   -0.33873E+01   660   0.919E+00    0.123E+00
RMM:   2     0.702255099210E+03    0.49548E+00    0.40737E+00   782   0.374E+00    0.158E+00
RMM:   3     0.702303160784E+03    0.48062E-01   -0.43014E-01   977   0.916E-01    0.842E-01
RMM:   4     0.702302464361E+03   -0.69642E-03   -0.20065E-01  1030   0.496E-01    0.540E-01
RMM:   5     0.702302242693E+03   -0.22167E-03   -0.71146E-02  1035   0.312E-01    0.372E-01
RMM:   6     0.702299770332E+03   -0.24724E-02   -0.55899E-02  1044   0.230E-01    0.356E-01
RMM:   7     0.702301632583E+03    0.18623E-02   -0.25482E-02  1036   0.171E-01    0.198E-01
RMM:   8     0.702302078725E+03    0.44614E-03   -0.10842E-02  1024   0.107E-01    0.990E-02
RMM:   9     0.702301794235E+03   -0.28449E-03   -0.57223E-03  1005   0.681E-02    0.809E-02
RMM:  10     0.702301752348E+03   -0.41887E-04   -0.27803E-03   907   0.494E-02    0.521E-02
RMM:  11     0.702301688730E+03   -0.63619E-04   -0.18424E-03   707   0.384E-02    0.397E-02
RMM:  12     0.702301641567E+03   -0.47163E-04   -0.10770E-03   516   0.313E-02    0.281E-02
RMM:  13     0.702301562518E+03   -0.79048E-04   -0.99137E-04   521   0.321E-02
  14 F= 0.70230156E+03 E0= 0.70219673E+03  d E =-.137726E+00
 curvature:  -1.69 expect dE=-0.324E-01 dE for cont linesearch -0.875E-04
 trial: gam= 0.71459 g(F)=  0.192E-01 g(S)=  0.000E+00 ort = 0.130E-02 (trialstep = 0.387E+01)
 search vector abs. value=  0.376E-01
 bond charge predicted
       N       E                     dE             d eps       ncg     rms          rms(c)
RMM:   1     0.701915594502E+03   -0.38605E+00   -0.21239E+01   664   0.743E+00    0.922E-01
WARNING in EDDRMM: call to ZHEGV failed, returncode =   8  4 **
RMM:   2     0.702253699302E+03    0.33810E+00    0.27363E+00   792   0.285E+00    0.703E-01
RMM:   3     0.702235352371E+03   -0.18347E-01   -0.26788E-01  1016   0.634E-01    0.566E-01
RMM:   4     0.702236930538E+03    0.15782E-02   -0.92386E-02  1038   0.331E-01    0.329E-01
RMM:   5     0.702235030653E+03   -0.18999E-02   -0.56519E-02  1032   0.241E-01    0.308E-01
RMM:   6     0.702236341272E+03    0.13106E-02   -0.22784E-02  1033   0.173E-01    0.155E-01
RMM:   7     0.702236008684E+03   -0.33259E-03   -0.12068E-02  1029   0.109E-01    0.109E-01
RMM:   8     0.702235812242E+03   -0.19644E-03   -0.55763E-03   983   0.711E-02    0.785E-02
RMM:   9     0.702235691485E+03   -0.12076E-03   -0.30247E-03   813   0.492E-02    0.653E-02
RMM:  10     0.702235603778E+03   -0.87707E-04   -0.17638E-03   640   0.373E-02    0.511E-02
RMM:  11     0.702235528780E+03   -0.74998E-04   -0.16377E-03   632   0.377E-02    0.287E-02
RMM:  12     0.702235409813E+03   -0.11897E-03   -0.15152E-03   574   0.338E-02    0.239E-02
RMM:  13     0.702235319785E+03   -0.90028E-04   -0.10482E-03   479   0.275E-02    0.202E-02
RMM:  14     0.702235234883E+03   -0.84902E-04   -0.90535E-04   486   0.264E-02
  15 F= 0.70223523E+03 E0= 0.70213141E+03  d E =-.663276E-01
 trial-energy change:   -0.066328  1 .order   -0.064939   -0.077700   -0.052178
 step:   8.4738(harm= 11.7704)  dis= 0.03051  next Energy=   702.201791 (dE=-0.998E-01)
 bond charge predicted
       N       E                     dE             d eps       ncg     rms          rms(c)
RMM:   1     0.701772904272E+03   -0.46242E+00   -0.29863E+01   662   0.885E+00    0.109E+00
RMM:   2     0.702217634639E+03    0.44473E+00    0.35164E+00   796   0.326E+00    0.810E-01
RMM:   3     0.702189600213E+03   -0.28034E-01   -0.37519E-01  1011   0.761E-01    0.683E-01
RMM:   4     0.702191352932E+03    0.17527E-02   -0.13605E-01  1037   0.398E-01    0.381E-01
RMM:   5     0.702187425925E+03   -0.39270E-02   -0.83700E-02  1038   0.289E-01    0.364E-01
RMM:   6     0.702188855728E+03    0.14298E-02   -0.35754E-02  1039   0.207E-01    0.185E-01
RMM:   7     0.702187966756E+03   -0.88897E-03   -0.19485E-02  1036   0.130E-01    0.137E-01
RMM:   8     0.702187597851E+03   -0.36890E-03   -0.94744E-03  1018   0.870E-02    0.933E-02
RMM:   9     0.702187294293E+03   -0.30356E-03   -0.56788E-03   918   0.605E-02    0.704E-02
RMM:  10     0.702186975129E+03   -0.31916E-03   -0.41982E-03   755   0.456E-02    0.564E-02
RMM:  11     0.702186712850E+03   -0.26228E-03   -0.35407E-03   702   0.416E-02    0.312E-02
RMM:  12     0.702186425095E+03   -0.28775E-03   -0.30820E-03   563   0.374E-02    0.252E-02
RMM:  13     0.702186175273E+03   -0.24982E-03   -0.25467E-03   521   0.336E-02    0.182E-02
RMM:  14     0.702185937793E+03   -0.23748E-03   -0.23711E-03   490   0.312E-02    0.143E-02
RMM:  15     0.702185705720E+03   -0.23207E-03   -0.22630E-03   510   0.293E-02    0.107E-02
RMM:  16     0.702185481476E+03   -0.22424E-03   -0.21622E-03   476   0.260E-02    0.717E-03
RMM:  17     0.702185261446E+03   -0.22003E-03   -0.20913E-03   446   0.238E-02    0.471E-03
RMM:  18     0.702185052217E+03   -0.20923E-03   -0.19712E-03   440   0.248E-02    0.388E-03
RMM:  19     0.702184847998E+03   -0.20422E-03   -0.19428E-03   434   0.241E-02    0.388E-03
RMM:  20     0.702184654530E+03   -0.19347E-03   -0.18457E-03   430   0.245E-02    0.367E-03
RMM:  21     0.702184463816E+03   -0.19071E-03   -0.18325E-03   437   0.241E-02    0.321E-03
RMM:  22     0.702184281027E+03   -0.18279E-03   -0.17629E-03   402   0.224E-02    0.362E-03
RMM:  23     0.702184105419E+03   -0.17561E-03   -0.17066E-03   359   0.201E-02    0.446E-03
RMM:  24     0.702183935060E+03   -0.17036E-03   -0.16750E-03   327   0.201E-02    0.676E-03
RMM:  25     0.702183766980E+03   -0.16808E-03   -0.16320E-03   358   0.205E-02    0.917E-03
RMM:  26     0.702183607085E+03   -0.15989E-03   -0.15678E-03   337   0.197E-02    0.122E-02
RMM:  27     0.702183447517E+03   -0.15957E-03   -0.15544E-03   299   0.180E-02    0.153E-02
RMM:  28     0.702183292075E+03   -0.15544E-03   -0.15253E-03   302   0.192E-02    0.186E-02
RMM:  29     0.702183140442E+03   -0.15163E-03   -0.14828E-03   298   0.174E-02    0.225E-02
RMM:  30     0.702182989711E+03   -0.15073E-03   -0.14766E-03   306   0.180E-02    0.265E-02
RMM:  31     0.702182846628E+03   -0.14308E-03   -0.14016E-03   280   0.163E-02    0.308E-02
RMM:  32     0.702182704848E+03   -0.14178E-03   -0.13901E-03   277   0.168E-02    0.356E-02
RMM:  33     0.702182562028E+03   -0.14282E-03   -0.14010E-03   287   0.166E-02    0.401E-02
RMM:  34     0.702182426977E+03   -0.13505E-03   -0.13219E-03   283   0.165E-02    0.449E-02
RMM:  35     0.702182289311E+03   -0.13767E-03   -0.13510E-03   280   0.164E-02    0.497E-02
RMM:  36     0.702182156094E+03   -0.13322E-03   -0.13077E-03   269   0.163E-02    0.550E-02
RMM:  37     0.702182023522E+03   -0.13257E-03   -0.13008E-03   272   0.160E-02    0.610E-02
RMM:  38     0.702181890850E+03   -0.13267E-03   -0.13037E-03   291   0.173E-02    0.668E-02
RMM:  39     0.702181762330E+03   -0.12852E-03   -0.12625E-03   279   0.163E-02    0.729E-02
RMM:  40     0.702181635385E+03   -0.12695E-03   -0.12462E-03   266   0.158E-02    0.793E-02
RMM:  41     0.702181513668E+03   -0.12172E-03   -0.11938E-03   269   0.163E-02    0.860E-02
RMM:  42     0.702181389163E+03   -0.12451E-03   -0.12243E-03   270   0.170E-02    0.927E-02
RMM:  43     0.702181269829E+03   -0.11933E-03   -0.11714E-03   270   0.168E-02    0.995E-02
RMM:  44     0.702181148597E+03   -0.12123E-03   -0.11912E-03   274   0.170E-02    0.106E-01
RMM:  45     0.702181026798E+03   -0.12180E-03   -0.11966E-03   272   0.166E-02    0.114E-01
WARNING in EDDRMM: call to ZHEGV failed, returncode =   6  3 90
RMM:  46     0.702180908671E+03   -0.11813E-03   -0.11594E-03   254   0.162E-02    0.121E-01
RMM:  47     0.702180792154E+03   -0.11652E-03   -0.11152E-03   270   0.172E-02    0.129E-01
RMM:  48     0.702180674635E+03   -0.11752E-03   -0.11551E-03   256   0.163E-02    0.137E-01
RMM:  49     0.702180559092E+03   -0.11554E-03   -0.11367E-03   265   0.168E-02    0.144E-01
RMM:  50     0.702180440471E+03   -0.11862E-03   -0.11667E-03   266   0.162E-02    0.152E-01
RMM:  51     0.702180329238E+03   -0.11123E-03   -0.10924E-03   257   0.157E-02    0.159E-01
RMM:  52     0.702180214926E+03   -0.11431E-03   -0.11226E-03   270   0.164E-02    0.166E-01
RMM:  53     0.702180102383E+03   -0.11254E-03   -0.11016E-03   255   0.161E-02    0.174E-01
RMM:  54     0.702179993431E+03   -0.10895E-03   -0.10754E-03   270   0.174E-02    0.181E-01
RMM:  55     0.702179878463E+03   -0.11497E-03   -0.11335E-03   267   0.161E-02    0.189E-01
RMM:  56     0.702179774497E+03   -0.10397E-03   -0.10251E-03   247   0.152E-02    0.196E-01
RMM:  57     0.702179665082E+03   -0.10942E-03   -0.10937E-03   274   0.162E-02    0.203E-01
RMM:  58     0.702179555552E+03   -0.10953E-03   -0.10811E-03   265   0.156E-02    0.211E-01
RMM:  59     0.702179447707E+03   -0.10784E-03   -0.10640E-03   256   0.154E-02    0.218E-01
RMM:  60     0.702179340770E+03   -0.10694E-03   -0.10547E-03   259   0.160E-02
  16 F= 0.70217934E+03 E0= 0.70207991E+03  d E =-.122222E+00
 curvature:  -9.10 expect dE=-0.119E+00 dE for cont linesearch -0.114E-01
 ZBRENT: increasing intervall
 opt :  17.6891  next Energy=   702.177278 (dE=-0.124E+00)
 bond charge predicted
       N       E                     dE             d eps       ncg     rms          rms(c)
RMM:   1     0.700784095339E+03   -0.13954E+01   -0.11745E+02   668   0.177E+01    0.214E+00
RMM:   2     0.702348919351E+03    0.15648E+01    0.12183E+01   769   0.621E+00    0.148E+00
RMM:   3     0.702207735510E+03   -0.14118E+00   -0.15776E+00   994   0.159E+00    0.128E+00
RMM:   4     0.702201804025E+03   -0.59315E-02   -0.53178E-01  1033   0.805E-01    0.813E-01
RMM:   5     0.702182009376E+03   -0.19795E-01   -0.33280E-01  1047   0.555E-01    0.787E-01
RMM:   6     0.702189505345E+03    0.74960E-02   -0.12166E-01  1032   0.404E-01    0.425E-01
RMM:   7     0.702187662738E+03   -0.18426E-02   -0.84387E-02  1044   0.271E-01    0.275E-01
RMM:   8     0.702186536366E+03   -0.11264E-02   -0.33734E-02  1037   0.177E-01    0.196E-01
RMM:   9     0.702185296148E+03   -0.12402E-02   -0.21008E-02  1029   0.118E-01    0.161E-01
RMM:  10     0.702184539687E+03   -0.75646E-03   -0.12355E-02  1002   0.825E-02    0.138E-01
RMM:  11     0.702184011644E+03   -0.52804E-03   -0.93452E-03   964   0.637E-02    0.923E-02
RMM:  12     0.702183386978E+03   -0.62467E-03   -0.78704E-03   855   0.550E-02    0.655E-02
RMM:  13     0.702182810883E+03   -0.57610E-03   -0.66402E-03   737   0.474E-02    0.362E-02
WARNING in EDDRMM: call to ZHEGV failed, returncode =   6  3 40
RMM:  14     0.702182301572E+03   -0.50931E-03   -0.52491E-03   573   0.377E-02    0.311E-02
RMM:  15     0.702181813501E+03   -0.48807E-03   -0.49054E-03   577   0.384E-02    0.245E-02
RMM:  16     0.702181354197E+03   -0.45930E-03   -0.44906E-03   529   0.332E-02    0.206E-02
RMM:  17     0.702180910624E+03   -0.44357E-03   -0.42537E-03   529   0.331E-02    0.156E-02
RMM:  18     0.702180487229E+03   -0.42339E-03   -0.39636E-03   482   0.295E-02    0.109E-02
RMM:  19     0.702180076567E+03   -0.41066E-03   -0.37964E-03   479   0.287E-02    0.860E-03
RMM:  20     0.702179692660E+03   -0.38391E-03   -0.35766E-03   482   0.302E-02    0.995E-03
RMM:  21     0.702179334668E+03   -0.35799E-03   -0.34206E-03   452   0.282E-02    0.110E-02
RMM:  22     0.702179000339E+03   -0.33433E-03   -0.32547E-03   427   0.264E-02    0.142E-02
RMM:  23     0.702178676313E+03   -0.32403E-03   -0.31557E-03   411   0.249E-02    0.206E-02
RMM:  24     0.702178366369E+03   -0.30994E-03   -0.30324E-03   402   0.241E-02    0.250E-02
RMM:  25     0.702178069244E+03   -0.29713E-03   -0.28949E-03   355   0.223E-02    0.331E-02
RMM:  26     0.702177780342E+03   -0.28890E-03   -0.28339E-03   340   0.234E-02    0.387E-02
RMM:  27     0.702177493999E+03   -0.28634E-03   -0.27924E-03   351   0.234E-02    0.471E-02
RMM:  28     0.702177222221E+03   -0.27178E-03   -0.26666E-03   341   0.213E-02    0.531E-02
RMM:  29     0.702176955729E+03   -0.26649E-03   -0.26161E-03   320   0.203E-02    0.604E-02
RMM:  30     0.702176691402E+03   -0.26433E-03   -0.25876E-03   311   0.197E-02    0.681E-02
RMM:  31     0.702176443070E+03   -0.24833E-03   -0.24460E-03   292   0.187E-02    0.757E-02
RMM:  32     0.702176194567E+03   -0.24850E-03   -0.24400E-03   290   0.195E-02    0.837E-02
RMM:  33     0.702175950886E+03   -0.24368E-03   -0.23987E-03   299   0.198E-02    0.920E-02
RMM:  34     0.702175710082E+03   -0.24080E-03   -0.23593E-03   306   0.195E-02    0.100E-01
RMM:  35     0.702175478276E+03   -0.23181E-03   -0.23024E-03   312   0.193E-02    0.108E-01
RMM:  36     0.702175248946E+03   -0.22933E-03   -0.22451E-03   300   0.188E-02    0.116E-01
RMM:  37     0.702175021656E+03   -0.22729E-03   -0.22322E-03   294   0.182E-02    0.125E-01
RMM:  38     0.702174798820E+03   -0.22284E-03   -0.21870E-03   278   0.182E-02    0.134E-01
RMM:  39     0.702174579290E+03   -0.21953E-03   -0.21518E-03   283   0.184E-02    0.144E-01
RMM:  40     0.702174363964E+03   -0.21533E-03   -0.21122E-03   296   0.190E-02    0.153E-01
RMM:  41     0.702174147097E+03   -0.21687E-03   -0.21232E-03   289   0.190E-02    0.162E-01
RMM:  42     0.702173932379E+03   -0.21472E-03   -0.21047E-03   299   0.186E-02    0.172E-01
RMM:  43     0.702173721709E+03   -0.21067E-03   -0.20674E-03   277   0.177E-02    0.182E-01
RMM:  44     0.702173517275E+03   -0.20443E-03   -0.20010E-03   294   0.180E-02    0.192E-01
RMM:  45     0.702173313418E+03   -0.20386E-03   -0.19986E-03   274   0.172E-02    0.202E-01
RMM:  46     0.702173111756E+03   -0.20166E-03   -0.19781E-03   270   0.180E-02    0.213E-01
RMM:  47     0.702172912965E+03   -0.19879E-03   -0.19174E-03   280   0.182E-02    0.224E-01
RMM:  48     0.702172711123E+03   -0.20184E-03   -0.19589E-03   288   0.188E-02    0.235E-01
RMM:  49     0.702172511889E+03   -0.19923E-03   -0.19453E-03   275   0.181E-02    0.246E-01
RMM:  50     0.702172316396E+03   -0.19549E-03   -0.19418E-03   278   0.179E-02    0.257E-01
RMM:  51     0.702172118338E+03   -0.19806E-03   -0.19251E-03   266   0.175E-02    0.268E-01
RMM:  52     0.702171913734E+03   -0.20460E-03   -0.18516E-03   299   0.183E-02    0.280E-01
RMM:  53     0.702171720131E+03   -0.19360E-03   -0.18693E-03   274   0.184E-02    0.292E-01
RMM:  54     0.702171514000E+03   -0.20613E-03   -0.19074E-03   294   0.187E-02    0.303E-01
RMM:  55     0.702171322409E+03   -0.19159E-03   -0.18912E-03   279   0.182E-02    0.314E-01
RMM:  56     0.702171132547E+03   -0.18986E-03   -0.18629E-03   289   0.193E-02    0.326E-01
RMM:  57     0.702170989591E+03   -0.14296E-03   -0.18380E-03   304   0.188E-02    0.335E-01
RMM:  58     0.702170843497E+03   -0.14609E-03   -0.17827E-03   306   0.185E-02    0.344E-01
RMM:  59     0.702170687689E+03   -0.15581E-03   -0.17595E-03   335   0.198E-02    0.352E-01
RMM:  60     0.702170540747E+03   -0.14694E-03   -0.17212E-03   362   0.202E-02
  17 F= 0.70217054E+03 E0= 0.70209127E+03  d E =-.131022E+00
 curvature:  -1.65 expect dE=-0.742E-01 dE for cont linesearch -0.314E-02
 ZBRENT: bracketing found
 ZBRENT: interpolating
 opt :  12.5980  next Energy=   702.165195 (dE=-0.136E+00)
 bond charge predicted
       N       E                     dE             d eps       ncg     rms          rms(c)
RMM:   1     0.701647582367E+03   -0.52311E+00   -0.36539E+01   659   0.976E+00    0.145E+00
RMM:   2     0.702041999460E+03    0.39442E+00    0.32248E+00   785   0.372E+00    0.204E+00
RMM:   3     0.702145519545E+03    0.10352E+00   -0.57547E-01   994   0.948E-01    0.106E+00
RMM:   4     0.702153434415E+03    0.79149E-02   -0.24952E-01  1041   0.533E-01    0.642E-01
RMM:   5     0.702153013073E+03   -0.42134E-03   -0.96834E-02  1029   0.343E-01    0.468E-01
RMM:   6     0.702153164583E+03    0.15151E-03   -0.58288E-02  1042   0.247E-01    0.320E-01
RMM:   7     0.702152358877E+03   -0.80571E-03   -0.37636E-02  1036   0.187E-01    0.286E-01
RMM:   8     0.702154234822E+03    0.18759E-02   -0.12955E-02  1035   0.122E-01    0.140E-01
RMM:   9     0.702153978962E+03   -0.25586E-03   -0.79574E-03   993   0.756E-02    0.911E-02
[...]
RMM:   4     0.695438996682E+03   -0.12966E-03   -0.36646E-02  1034   0.227E-01    0.234E-01
RMM:   5     0.695438068817E+03   -0.92787E-03   -0.26107E-02  1025   0.173E-01    0.236E-01
RMM:   6     0.695439180327E+03    0.11115E-02   -0.11313E-02  1030   0.133E-01    0.114E-01
RMM:   7     0.695439198826E+03    0.18499E-04   -0.58198E-03  1010   0.809E-02    0.489E-02
RMM:   8     0.695439007441E+03   -0.19138E-03   -0.29200E-03   902   0.527E-02    0.441E-02
RMM:   9     0.695438905683E+03   -0.10176E-03   -0.16330E-03   688   0.359E-02    0.414E-02
RMM:  10     0.695438816356E+03   -0.89326E-04   -0.11009E-03   529   0.307E-02    0.405E-02
RMM:  11     0.695438746405E+03   -0.69951E-04   -0.94923E-04   456   0.296E-02
  21 F= 0.69543875E+03 E0= 0.69546831E+03  d E =-.114683E-01
 trial-energy change:   -0.011468  1 .order   -0.010467   -0.019459   -0.001476
 step:   8.9477(harm=  9.1289)  dis= 0.01188  next Energy=   695.438701 (dE=-0.115E-01)
 bond charge predicted
       N       E                     dE             d eps       ncg     rms          rms(c)
RMM:   1     0.695438059376E+03   -0.75698E-03   -0.38500E-02   715   0.316E-01    0.428E-02
RMM:   2     0.695438469503E+03    0.41013E-03    0.23693E-03   788   0.120E-01    0.521E-02
RMM:   3     0.695438432052E+03   -0.37451E-04   -0.13063E-03   681   0.430E-02    0.273E-02
RMM:   4     0.695438368648E+03   -0.63404E-04   -0.86519E-04   525   0.346E-02
  22 F= 0.69543837E+03 E0= 0.69546788E+03  d E =-.118461E-01
 curvature:  -6.94 expect dE=-0.604E-02 dE for cont linesearch -0.254E-05
 trial: gam= 0.41323 g(F)=  0.869E-03 g(S)=  0.000E+00 ort =-0.371E-04 (trialstep = 0.854E+01)
 search vector abs. value=  0.148E-02
 bond charge predicted
       N       E                     dE             d eps       ncg     rms          rms(c)
RMM:   1     0.695375065318E+03   -0.63367E-01   -0.40195E+00   673   0.327E+00    0.457E-01
RMM:   2     0.695432874549E+03    0.57809E-01    0.44527E-01   804   0.111E+00    0.381E-01
RMM:   3     0.695432986734E+03    0.11218E-03   -0.47756E-02  1004   0.306E-01    0.245E-01
RMM:   4     0.695433274992E+03    0.28826E-03   -0.19031E-02  1027   0.168E-01    0.150E-01
RMM:   5     0.695433123641E+03   -0.15135E-03   -0.11255E-02  1025   0.118E-01    0.125E-01
RMM:   6     0.695433362650E+03    0.23901E-03   -0.54855E-03  1011   0.900E-02    0.794E-02
RMM:   7     0.695433366169E+03    0.35195E-05   -0.27829E-03   924   0.550E-02    0.348E-02
RMM:   8     0.695433253119E+03   -0.11305E-03   -0.16725E-03   727   0.387E-02    0.240E-02
RMM:   9     0.695433173018E+03   -0.80101E-04   -0.10819E-03   558   0.304E-02    0.207E-02
RMM:  10     0.695433094741E+03   -0.78277E-04   -0.84522E-04   458   0.284E-02
  23 F= 0.69543309E+03 E0= 0.69546094E+03  d E =-.527391E-02
 trial-energy change:   -0.005274  1 .order   -0.003953   -0.007293   -0.000612
 step:   8.8888(harm=  9.3212)  dis= 0.00744  next Energy=   695.433082 (dE=-0.529E-02)
 bond charge predicted
       N       E                     dE             d eps       ncg     rms          rms(c)
RMM:   1     0.695432953616E+03   -0.21940E-03   -0.71567E-03   750   0.141E-01    0.236E-02
RMM:   2     0.695432886485E+03   -0.67131E-04   -0.97810E-04   697   0.566E-02
  24 F= 0.69543289E+03 E0= 0.69546069E+03  d E =-.548216E-02
 curvature:  -5.62 expect dE=-0.167E-02 dE for cont linesearch -0.222E-09
 trial: gam= 0.39496 g(F)=  0.297E-03 g(S)=  0.000E+00 ort =-0.242E-06 (trialstep = 0.861E+01)
 search vector abs. value=  0.528E-03
 bond charge predicted
       N       E                     dE             d eps       ncg     rms          rms(c)
RMM:   1     0.695411094739E+03   -0.21859E-01   -0.14423E+00   685   0.196E+00    0.262E-01
RMM:   2     0.695431904659E+03    0.20810E-01    0.15936E-01   815   0.644E-01    0.164E-01
RMM:   3     0.695430950972E+03   -0.95369E-03   -0.16104E-02  1007   0.172E-01    0.118E-01
RMM:   4     0.695430773692E+03   -0.17728E-03   -0.69623E-03  1013   0.954E-02    0.822E-02
RMM:   5     0.695430648877E+03   -0.12481E-03   -0.46233E-03   991   0.726E-02    0.812E-02
RMM:   6     0.695430754056E+03    0.10518E-03   -0.21135E-03   887   0.518E-02    0.337E-02
RMM:   7     0.695430661446E+03   -0.92609E-04   -0.14260E-03   681   0.360E-02    0.210E-02
RMM:   8     0.695430593134E+03   -0.68312E-04   -0.93582E-04   507   0.304E-02
  25 F= 0.69543059E+03 E0= 0.69545820E+03  d E =-.229335E-02
 trial-energy change:   -0.002293  1 .order   -0.001554   -0.002559   -0.000550
 step:   9.3050(harm= 10.9662)  dis= 0.00586  next Energy=   695.430571 (dE=-0.232E-02)
 bond charge predicted
       N       E                     dE             d eps       ncg     rms          rms(c)
RMM:   1     0.695430366536E+03   -0.29491E-03   -0.10326E-02   738   0.164E-01    0.275E-02
RMM:   2     0.695430391489E+03    0.24953E-04   -0.25883E-04   667   0.648E-02
  26 F= 0.69543039E+03 E0= 0.69545795E+03  d E =-.249500E-02
 curvature:  -4.91 expect dE=-0.584E-03 dE for cont linesearch -0.405E-06
 trial: gam= 0.44914 g(F)=  0.119E-03 g(S)=  0.000E+00 ort = 0.660E-05 (trialstep = 0.875E+01)
 search vector abs. value=  0.232E-03
 bond charge predicted
       N       E                     dE             d eps       ncg     rms          rms(c)
RMM:   1     0.695419326397E+03   -0.11040E-01   -0.66125E-01   680   0.133E+00    0.174E-01
RMM:   2     0.695429797188E+03    0.10471E-01    0.83313E-02   805   0.459E-01    0.106E-01
RMM:   3     0.695429302395E+03   -0.49479E-03   -0.77839E-03   966   0.119E-01    0.739E-02
RMM:   4     0.695429198031E+03   -0.10436E-03   -0.36727E-03   957   0.688E-02    0.476E-02
RMM:   5     0.695429129289E+03   -0.68742E-04   -0.20723E-03   812   0.515E-02    0.402E-02
RMM:   6     0.695429094784E+03   -0.34505E-04   -0.11064E-03   664   0.358E-02    0.191E-02
RMM:   7     0.695429030747E+03   -0.64038E-04   -0.77917E-04   476   0.292E-02
  27 F= 0.69542903E+03 E0= 0.69545620E+03  d E =-.136074E-02
 trial-energy change:   -0.001361  1 .order   -0.000683   -0.001067   -0.000299
 step:   9.2630(harm= 12.1493)  dis= 0.00275  next Energy=   695.429022 (dE=-0.137E-02)
 bond charge predicted
       N       E                     dE             d eps       ncg     rms          rms(c)
RMM:   1     0.695428926469E+03   -0.16832E-03   -0.30144E-03   755   0.876E-02    0.133E-02
RMM:   2     0.695428867943E+03   -0.58526E-04   -0.68069E-04   527   0.379E-02
  28 F= 0.69542887E+03 E0= 0.69545604E+03  d E =-.152355E-02
 curvature:  -3.23 expect dE=-0.158E-03 dE for cont linesearch -0.184E-04
 ZBRENT: increasing intervall
 opt :  10.2932  next Energy=   695.428828 (dE=-0.156E-02)
 bond charge predicted
       N       E                     dE             d eps       ncg     rms          rms(c)
RMM:   1     0.695428684960E+03   -0.24151E-03   -0.95456E-03   709   0.164E-01    0.202E-02
RMM:   2     0.695428714961E+03    0.30001E-04    0.74130E-05   573   0.666E-02
  29 F= 0.69542871E+03 E0= 0.69545585E+03  d E =-.167653E-02
 curvature:  -6.96 expect dE=-0.379E-03 dE for cont linesearch -0.668E-05
 ZBRENT: increasing intervall
 opt :  12.3534  next Energy=   695.428728 (dE=-0.166E-02)
 bond charge predicted
       N       E                     dE             d eps       ncg     rms          rms(c)
RMM:   1     0.695428107945E+03   -0.57702E-03   -0.37793E-02   713   0.319E-01    0.425E-02
RMM:   2     0.695428545255E+03    0.43731E-03    0.32728E-03   741   0.117E-01    0.317E-02
RMM:   3     0.695428431280E+03   -0.11397E-03   -0.12917E-03   689   0.416E-02    0.226E-02
RMM:   4     0.695428393420E+03   -0.37860E-04   -0.69255E-04   521   0.331E-02
  30 F= 0.69542839E+03 E0= 0.69545542E+03  d E =-.199807E-02
 curvature:  13.96 expect dE= 0.957E-03 dE for cont linesearch  0.342E-05
 trial: gam= 0.76901 g(F)=  0.685E-04 g(S)=  0.000E+00 ort =-0.753E-05 (trialstep = 0.947E+01)
 search vector abs. value=  0.194E-03
 bond charge predicted
       N       E                     dE             d eps       ncg     rms          rms(c)
RMM:   1     0.695418394536E+03   -0.10037E-01   -0.64361E-01   682   0.130E+00    0.175E-01
RMM:   2     0.695428035602E+03    0.96411E-02    0.75915E-02   798   0.456E-01    0.111E-01
RMM:   3     0.695427547292E+03   -0.48831E-03   -0.81698E-03   971   0.119E-01    0.774E-02
RMM:   4     0.695427521825E+03   -0.25468E-04   -0.30767E-03   930   0.678E-02    0.484E-02
RMM:   5     0.695427415488E+03   -0.10634E-03   -0.21647E-03   847   0.509E-02    0.505E-02
RMM:   6     0.695427423874E+03    0.83854E-05   -0.11292E-03   665   0.375E-02    0.248E-02
RMM:   7     0.695427376825E+03   -0.47049E-04   -0.71777E-04   486   0.302E-02
  31 F= 0.69542738E+03 E0= 0.69545428E+03  d E =-.101660E-02
 trial-energy change:   -0.001017  1 .order   -0.000335   -0.000594   -0.000077
 step:   9.6248(harm= 10.8760)  dis= 0.00327  next Energy=   695.427376 (dE=-0.102E-02)
 bond charge predicted
       N       E                     dE             d eps       ncg     rms          rms(c)
RMM:   1     0.695427303289E+03   -0.12058E-03   -0.10241E-03   722   0.388E-02    0.119E-02
RMM:   2     0.695427246167E+03   -0.57122E-04   -0.58290E-04   442   0.265E-02
  32 F= 0.69542725E+03 E0= 0.69545414E+03  d E =-.114725E-02
 curvature:  -3.51 expect dE=-0.102E-03 dE for cont linesearch -0.509E-05
 ZBRENT: increasing intervall
 opt :   9.9363  next Energy=   695.427238 (dE=-0.116E-02)
 bond charge predicted
       N       E                     dE             d eps       ncg     rms          rms(c)
RMM:   1     0.695427189760E+03   -0.11353E-03   -0.12176E-03   753   0.505E-02    0.771E-03
RMM:   2     0.695427141996E+03   -0.47764E-04   -0.50160E-04   399   0.243E-02
  33 F= 0.69542714E+03 E0= 0.69545401E+03  d E =-.125142E-02
 curvature:  -5.46 expect dE=-0.161E-03 dE for cont linesearch -0.487E-05
 ZBRENT: increasing intervall
 opt :  10.5594  next Energy=   695.427136 (dE=-0.126E-02)
 bond charge predicted
       N       E                     dE             d eps       ncg     rms          rms(c)
RMM:   1     0.695427069587E+03   -0.12017E-03   -0.31003E-03   721   0.923E-02    0.111E-02
RMM:   2     0.695427039554E+03   -0.30033E-04   -0.34506E-04   529   0.399E-02
  34 F= 0.69542704E+03 E0= 0.69545391E+03  d E =-.135387E-02
 curvature:  -6.66 expect dE=-0.237E-03 dE for cont linesearch -0.874E-06
 trial: gam= 0.64863 g(F)=  0.356E-04 g(S)=  0.000E+00 ort =-0.504E-05 (trialstep = 0.969E+01)
 search vector abs. value=  0.111E-03
 bond charge predicted
       N       E                     dE             d eps       ncg     rms          rms(c)
RMM:   1     0.695421428555E+03   -0.56410E-02   -0.38076E-01   691   0.100E+00    0.138E-01
RMM:   2     0.695426717595E+03    0.52890E-02    0.41768E-02   802   0.334E-01    0.951E-02
RMM:   3     0.695426393962E+03   -0.32363E-03   -0.54480E-03   952   0.947E-02    0.710E-02
RMM:   4     0.695426415999E+03    0.22037E-04   -0.21474E-03   830   0.549E-02    0.404E-02
RMM:   5     0.695426375278E+03   -0.40720E-04   -0.14487E-03   745   0.416E-02    0.362E-02
RMM:   6     0.695426370933E+03   -0.43454E-05   -0.83657E-04   582   0.349E-02
  35 F= 0.69542637E+03 E0= 0.69545324E+03  d E =-.668621E-03
 trial-energy change:   -0.000669  1 .order   -0.000136   -0.000313    0.000041
 step:   9.5746(harm=  8.5705)  dis= 0.00180  next Energy=   695.426371 (dE=-0.669E-03)
 bond charge predicted
       N       E                     dE             d eps       ncg     rms          rms(c)
RMM:   1     0.695426325444E+03   -0.49834E-04   -0.63332E-04   479   0.321E-02    0.128E-02
RMM:   2     0.695426259636E+03   -0.65809E-04   -0.69036E-04   472   0.296E-02
  36 F= 0.69542626E+03 E0= 0.69545307E+03  d E =-.779918E-03
 curvature:  -2.81 expect dE=-0.428E-04 dE for cont linesearch -0.104E-04
 ZBRENT: interpolating
 opt :   9.6678  next Energy=   695.426371 (dE=-0.669E-03)
 bond charge predicted
       N       E                     dE             d eps       ncg     rms          rms(c)
RMM:   1     0.695426213952E+03   -0.11149E-03   -0.58425E-04   449   0.252E-02    0.855E-03
RMM:   2     0.695426177095E+03   -0.36857E-04   -0.39947E-04   510   0.300E-02
  37 F= 0.69542618E+03 E0= 0.69545302E+03  d E =-.862458E-03
 curvature:  -0.01 expect dE=-0.173E-06 dE for cont linesearch -0.159E-07
 ZBRENT: bisectioning
 opt :   9.6212  next Energy=   695.426176 (dE=-0.864E-03)
 bond charge predicted
       N       E                     dE             d eps       ncg     rms          rms(c)
RMM:   1     0.695426135883E+03   -0.78069E-04   -0.41826E-04   425   0.210E-02    0.531E-03
RMM:   2     0.695426099688E+03   -0.36195E-04   -0.36588E-04   411   0.216E-02
  38 F= 0.69542610E+03 E0= 0.69545292E+03  d E =-.939866E-03
 curvature:  -0.73 expect dE=-0.108E-04 dE for cont linesearch -0.193E-05
 ZBRENT: interpolating
 opt :   9.6479  next Energy=   695.426177 (dE=-0.863E-03)
 bond charge predicted
       N       E                     dE             d eps       ncg     rms          rms(c)
RMM:   1     0.695426059673E+03   -0.76211E-04   -0.39713E-04   425   0.224E-02    0.458E-03
RMM:   2     0.695426018813E+03   -0.40860E-04   -0.40797E-04   421   0.210E-02
  39 F= 0.69542602E+03 E0= 0.69545283E+03  d E =-.102074E-02
 curvature:  -0.05 expect dE=-0.698E-06 dE for cont linesearch -0.791E-08
 ZBRENT: interpolating
 opt :   9.6398  next Energy=   695.426019 (dE=-0.102E-02)
 bond charge predicted
       N       E                     dE             d eps       ncg     rms          rms(c)
RMM:   1     0.695425972836E+03   -0.86837E-04   -0.45692E-04   395   0.198E-02    0.345E-03
RMM:   2     0.695425934889E+03   -0.37947E-04   -0.37488E-04   374   0.175E-02
  40 F= 0.69542593E+03 E0= 0.69545275E+03  d E =-.110466E-02
 curvature:  -0.13 expect dE=-0.156E-05 dE for cont linesearch -0.260E-08
 trial: gam= 0.40320 g(F)=  0.124E-04 g(S)=  0.000E+00 ort =-0.151E-05 (trialstep = 0.968E+01)
 search vector abs. value=  0.292E-04
 bond charge predicted
       N       E                     dE             d eps       ncg     rms          rms(c)
RMM:   1     0.695424391680E+03   -0.15812E-02   -0.10161E-01   701   0.517E-01    0.683E-02
RMM:   2     0.695425755298E+03    0.13636E-02    0.10221E-02   761   0.171E-01    0.437E-02
RMM:   3     0.695425651983E+03   -0.10332E-03   -0.15157E-03   760   0.528E-02    0.273E-02
RMM:   4     0.695425631391E+03   -0.20592E-04   -0.65605E-04   580   0.357E-02
  41 F= 0.69542563E+03 E0= 0.69545248E+03  d E =-.303498E-03
 trial-energy change:   -0.000303  1 .order   -0.000001   -0.000114    0.000113
 step:   4.8685(harm=  4.8685)  dis= 0.00059  next Energy=   695.425906 (dE=-0.287E-04)
 bond charge predicted
       N       E                     dE             d eps       ncg     rms          rms(c)
RMM:   1     0.695425164300E+03   -0.48768E-03   -0.24845E-02   670   0.254E-01    0.354E-02
RMM:   2     0.695425515574E+03    0.35127E-03    0.28675E-03   680   0.947E-02    0.297E-02
RMM:   3     0.695425501908E+03   -0.13666E-04   -0.46537E-04   449   0.284E-02
  42 F= 0.69542550E+03 E0= 0.69545231E+03  d E =-.432980E-03
 curvature:  -6.02 expect dE=-0.794E-04 dE for cont linesearch -0.652E-04
 ZBRENT: interpolating
 opt :   7.7740  next Energy=   695.425620 (dE=-0.315E-03)
 bond charge predicted
       N       E                     dE             d eps       ncg     rms          rms(c)
RMM:   1     0.695425288681E+03   -0.22689E-03   -0.92306E-03   655   0.154E-01    0.136E-02
RMM:   2     0.695425412887E+03    0.12421E-03    0.92857E-04   491   0.602E-02    0.102E-02
RMM:   3     0.695425372077E+03   -0.40810E-04   -0.42750E-04   428   0.236E-02
  43 F= 0.69542537E+03 E0= 0.69545222E+03  d E =-.562812E-03
 curvature:  -1.02 expect dE=-0.947E-05 dE for cont linesearch -0.699E-06
 ZBRENT: interpolating
 opt :   6.8276  next Energy=   695.425370 (dE=-0.565E-03)
 bond charge predicted
       N       E                     dE             d eps       ncg     rms          rms(c)
RMM:   1     0.695425327568E+03   -0.85319E-04   -0.11975E-03   720   0.554E-02    0.527E-03
RMM:   2     0.695425302483E+03   -0.25084E-04   -0.26020E-04   455   0.249E-02
  44 F= 0.69542530E+03 E0= 0.69545214E+03  d E =-.632405E-03
 curvature:  -3.71 expect dE=-0.357E-04 dE for cont linesearch -0.235E-04
 ZBRENT: interpolating
 opt :   7.5400  next Energy=   695.425372 (dE=-0.563E-03)
 bond charge predicted
       N       E                     dE             d eps       ncg     rms          rms(c)
RMM:   1     0.695425249218E+03   -0.78350E-04   -0.87743E-04   625   0.422E-02    0.415E-03
RMM:   2     0.695425228182E+03   -0.21036E-04   -0.22001E-04   380   0.229E-02
  45 F= 0.69542523E+03 E0= 0.69545206E+03  d E =-.706707E-03
 curvature:  -0.08 expect dE=-0.503E-06 dE for cont linesearch -0.207E-08
 trial: gam= 0.74135 g(F)=  0.611E-05 g(S)=  0.000E+00 ort =-0.855E-06 (trialstep = 0.925E+01)
 search vector abs. value=  0.209E-04
 bond charge predicted
       N       E                     dE             d eps       ncg     rms          rms(c)
RMM:   1     0.695423907075E+03   -0.13421E-02   -0.68859E-02   687   0.415E-01    0.576E-02
RMM:   2     0.695425073524E+03    0.11664E-02    0.92941E-03   734   0.153E-01    0.372E-02
RMM:   3     0.695424994969E+03   -0.78555E-04   -0.11399E-03   684   0.443E-02    0.226E-02
RMM:   4     0.695424978992E+03   -0.15977E-04   -0.49680E-04   494   0.318E-02
  46 F= 0.69542498E+03 E0= 0.69545178E+03  d E =-.249190E-03
 trial-energy change:   -0.000249  1 .order   -0.000003   -0.000051    0.000045
 step:   4.9218(harm=  4.9218)  dis= 0.00030  next Energy=   695.425215 (dE=-0.135E-04)
 bond charge predicted
       N       E                     dE             d eps       ncg     rms          rms(c)
RMM:   1     0.695424712414E+03   -0.28255E-03   -0.14105E-02   658   0.192E-01    0.269E-02
RMM:   2     0.695424869680E+03    0.15727E-03    0.13454E-03   569   0.718E-02    0.306E-02
RMM:   3     0.695424870228E+03    0.54800E-06   -0.37731E-04   412   0.246E-02
  47 F= 0.69542487E+03 E0= 0.69545173E+03  d E =-.357953E-03
 curvature:  -9.38 expect dE=-0.133E-03 dE for cont linesearch -0.109E-03
 ZBRENT: interpolating
 opt :   8.2288  next Energy=   695.424977 (dE=-0.252E-03)
 bond charge predicted
       N       E                     dE             d eps       ncg     rms          rms(c)
RMM:   1     0.695424686082E+03   -0.18360E-03   -0.83199E-03   665   0.148E-01    0.139E-02
RMM:   2     0.695424786382E+03    0.10030E-03    0.72937E-04   486   0.563E-02    0.804E-03
RMM:   3     0.695424748808E+03   -0.37574E-04   -0.37352E-04   409   0.227E-02
  48 F= 0.69542475E+03 E0= 0.69545156E+03  d E =-.479374E-03
 curvature:  -0.21 expect dE=-0.682E-06 dE for cont linesearch -0.672E-07
 ZBRENT: interpolating
 opt :   7.2199  next Energy=   695.424747 (dE=-0.481E-03)
 bond charge predicted
       N       E                     dE             d eps       ncg     rms          rms(c)
RMM:   1     0.695424704050E+03   -0.82331E-04   -0.10474E-03   694   0.499E-02    0.549E-03
RMM:   2     0.695424680943E+03   -0.23107E-04   -0.23445E-04   431   0.234E-02
  49 F= 0.69542468E+03 E0= 0.69545148E+03  d E =-.547238E-03
 curvature:  -4.66 expect dE=-0.305E-04 dE for cont linesearch -0.234E-04
 ZBRENT: interpolating
 opt :   8.0257  next Energy=   695.424749 (dE=-0.480E-03)
 bond charge predicted
       N       E                     dE             d eps       ncg     rms          rms(c)
RMM:   1     0.695424629396E+03   -0.74654E-04   -0.84500E-04   622   0.413E-02    0.425E-03
RMM:   2     0.695424613471E+03   -0.15925E-04   -0.16597E-04   380   0.250E-02
  50 F= 0.69542461E+03 E0= 0.69545143E+03  d E =-.614711E-03
 curvature:  -0.05 expect dE=-0.100E-06 dE for cont linesearch -0.255E-08
 trial: gam= 0.19389 g(F)=  0.191E-05 g(S)=  0.000E+00 ort = 0.101E-05 (trialstep = 0.901E+01)
 search vector abs. value=  0.309E-05
 reached required accuracy - stopping structural energy minimisation
