       N       E                     dE             d eps       ncg     rms          rms(c)
RMM:   1     0.568577382314E+04    0.56858E+04   -0.16535E+05   278   0.764E+02
RMM:   2     0.124051571983E+04   -0.44453E+04   -0.89829E+04   278   0.286E+02
RMM:   3     0.159274707982E+04    0.35223E+03   -0.40460E+04   278   0.303E+02
RMM:   4     0.929234351735E+03   -0.66351E+03   -0.95065E+03   278   0.177E+02
RMM:   5     0.541723804082E+03   -0.38751E+03   -0.53703E+03   278   0.142E+02
RMM:   6     0.487304272682E+03   -0.54420E+02   -0.23208E+03   278   0.117E+02
RMM:   7     0.347698623164E+03   -0.13961E+03   -0.28119E+03   278   0.116E+02
RMM:   8     0.351043085348E+03    0.33445E+01   -0.22883E+03   278   0.114E+02
RMM:   9     0.392433447668E+03    0.41390E+02   -0.16747E+03   844   0.115E+02
RMM:  10     0.518534936655E+03    0.12610E+03   -0.18284E+03   826   0.741E+01
RMM:  11     0.684287493113E+03    0.16575E+03    0.58244E+01   767   0.311E+01
RMM:  12     0.640786815878E+03   -0.43501E+02   -0.43889E+02   892   0.150E+01    0.357E+01
RMM:  13     0.678152657733E+03    0.37366E+02   -0.64724E+02   889   0.267E+01    0.217E+01
RMM:  14     0.702342380463E+03    0.24190E+02   -0.11026E+02   817   0.161E+01    0.108E+01
RMM:  15     0.699448371340E+03   -0.28940E+01   -0.11125E+02   940   0.986E+00    0.101E+01
RMM:  16     0.700220110300E+03    0.77174E+00   -0.35834E+01   975   0.544E+00    0.817E+00
RMM:  17     0.699232380189E+03   -0.98773E+00   -0.18106E+01   995   0.343E+00    0.757E+00
RMM:  18     0.698687950626E+03   -0.54443E+00   -0.11220E+01  1013   0.270E+00    0.641E+00
RMM:  19     0.698512732339E+03   -0.17522E+00   -0.10083E+01   901   0.299E+00    0.389E+00
RMM:  20     0.698705491158E+03    0.19276E+00   -0.48649E+00   955   0.203E+00    0.303E+00
RMM:  21     0.698799547563E+03    0.94056E-01   -0.30884E+00   985   0.148E+00    0.208E+00
RMM:  22     0.698801737073E+03    0.21895E-02   -0.14883E+00   985   0.109E+00    0.130E+00
RMM:  23     0.698721952855E+03   -0.79784E-01   -0.12093E+00   980   0.815E-01    0.138E+00
RMM:  24     0.698750739439E+03    0.28787E-01   -0.41430E-01   916   0.790E-01    0.946E-01
RMM:  25     0.698722983372E+03   -0.27756E-01   -0.58607E-01   950   0.611E-01    0.571E-01
RMM:  26     0.698714925878E+03   -0.80575E-02   -0.22053E-01   972   0.525E-01    0.472E-01
RMM:  27     0.698695913804E+03   -0.19012E-01   -0.22607E-01   946   0.400E-01    0.415E-01
RMM:  28     0.698681854338E+03   -0.14059E-01   -0.18909E-01   961   0.361E-01    0.259E-01
RMM:  29     0.698662403801E+03   -0.19451E-01   -0.20655E-01   949   0.291E-01    0.200E-01
RMM:  30     0.698650116089E+03   -0.12288E-01   -0.12678E-01   930   0.250E-01    0.162E-01
RMM:  31     0.698635699583E+03   -0.14417E-01   -0.15689E-01   923   0.226E-01    0.101E-01
RMM:  32     0.698625302361E+03   -0.10397E-01   -0.12877E-01   841   0.222E-01    0.834E-02
RMM:  33     0.698610724899E+03   -0.14577E-01   -0.15291E-01   799   0.195E-01    0.626E-02
RMM:  34     0.698597545082E+03   -0.13180E-01   -0.12506E-01   770   0.169E-01    0.553E-02
RMM:  35     0.698582869971E+03   -0.14675E-01   -0.13611E-01   768   0.159E-01    0.582E-02
RMM:  36     0.698569812353E+03   -0.13058E-01   -0.12194E-01   713   0.142E-01    0.681E-02
RMM:  37     0.698556391484E+03   -0.13421E-01   -0.12784E-01   608   0.128E-01    0.727E-02
RMM:  38     0.698544295593E+03   -0.12096E-01   -0.11745E-01   552   0.121E-01    0.125E-01
RMM:  39     0.698531542506E+03   -0.12753E-01   -0.11967E-01   724   0.134E-01    0.105E-01
RMM:  40     0.698519561883E+03   -0.11981E-01   -0.11313E-01   720   0.126E-01    0.901E-02
RMM:  41     0.698507912779E+03   -0.11649E-01   -0.11211E-01   610   0.110E-01    0.102E-01
RMM:  42     0.698496856397E+03   -0.11056E-01   -0.10745E-01   473   0.100E-01    0.139E-01
RMM:  43     0.698485807381E+03   -0.11049E-01   -0.10656E-01   611   0.100E-01    0.147E-01
RMM:  44     0.698475157464E+03   -0.10650E-01   -0.10336E-01   623   0.101E-01    0.151E-01
RMM:  45     0.698464742346E+03   -0.10415E-01   -0.10134E-01   560   0.945E-02    0.157E-01
RMM:  46     0.698454630705E+03   -0.10112E-01   -0.98482E-02   530   0.905E-02    0.181E-01
RMM:  47     0.698444649985E+03   -0.99807E-02   -0.97117E-02   489   0.838E-02    0.208E-01
RMM:  48     0.698434964482E+03   -0.96855E-02   -0.94829E-02   513   0.833E-02    0.231E-01
RMM:  49     0.698425308375E+03   -0.96561E-02   -0.93731E-02   452   0.762E-02    0.265E-01
RMM:  50     0.698416248796E+03   -0.90596E-02   -0.90789E-02   543   0.790E-02    0.270E-01
RMM:  51     0.698407315388E+03   -0.89334E-02   -0.89201E-02   579   0.806E-02    0.274E-01
RMM:  52     0.698398470493E+03   -0.88449E-02   -0.87045E-02   467   0.757E-02    0.290E-01
RMM:  53     0.698389785839E+03   -0.86847E-02   -0.84713E-02   490   0.719E-02    0.317E-01
RMM:  54     0.698381254775E+03   -0.85311E-02   -0.83348E-02   461   0.711E-02    0.344E-01
RMM:  55     0.698372865280E+03   -0.83895E-02   -0.82232E-02   441   0.676E-02    0.369E-01
RMM:  56     0.698364697037E+03   -0.81682E-02   -0.80062E-02   433   0.653E-02    0.396E-01
RMM:  57     0.698356681040E+03   -0.80160E-02   -0.78993E-02   420   0.615E-02    0.423E-01
RMM:  58     0.698348771185E+03   -0.79099E-02   -0.76986E-02   348   0.596E-02    0.456E-01
RMM:  59     0.698340982350E+03   -0.77888E-02   -0.75982E-02   356   0.598E-02    0.490E-01
RMM:  60     0.698333385936E+03   -0.75964E-02   -0.74267E-02   406   0.603E-02
   1 F= 0.69833339E+03 E0= 0.69835183E+03  d E =0.698333E+03
       N       E                     dE             d eps       ncg     rms          rms(c)
RMM:   1     0.697663374203E+03   -0.67761E+00   -0.17353E+01   686   0.643E+00    0.112E+00
RMM:   2     0.697876248820E+03    0.21287E+00    0.15284E+00   806   0.236E+00    0.147E+00
RMM:   3     0.697927819844E+03    0.51571E-01   -0.32974E-01   970   0.683E-01    0.719E-01
RMM:   4     0.697922099844E+03   -0.57200E-02   -0.19033E-01  1024   0.382E-01    0.478E-01
RMM:   5     0.697917505622E+03   -0.45942E-02   -0.91772E-02  1021   0.248E-01    0.330E-01
RMM:   6     0.697910176724E+03   -0.73289E-02   -0.90817E-02  1026   0.200E-01    0.320E-01
RMM:   7     0.697906077371E+03   -0.40994E-02   -0.71464E-02  1013   0.165E-01    0.191E-01
RMM:   8     0.697900547436E+03   -0.55299E-02   -0.66167E-02  1010   0.117E-01    0.130E-01
RMM:   9     0.697895051365E+03   -0.54961E-02   -0.59219E-02   975   0.874E-02    0.683E-02
RMM:  10     0.697889428812E+03   -0.56226E-02   -0.56445E-02   759   0.700E-02    0.660E-02
RMM:  11     0.697884003259E+03   -0.54256E-02   -0.53697E-02   547   0.610E-02    0.741E-02
RMM:  12     0.697878681746E+03   -0.53215E-02   -0.52313E-02   551   0.584E-02    0.880E-02
RMM:  13     0.697873298543E+03   -0.53832E-02   -0.52097E-02   555   0.562E-02    0.129E-01
RMM:  14     0.697867771519E+03   -0.55270E-02   -0.52186E-02   641   0.637E-02    0.200E-01
RMM:  15     0.697863352653E+03   -0.44189E-02   -0.50375E-02   725   0.704E-02    0.139E-01
RMM:  16     0.697858573636E+03   -0.47790E-02   -0.50789E-02   773   0.699E-02    0.571E-02
RMM:  17     0.697853791697E+03   -0.47819E-02   -0.47041E-02   493   0.514E-02    0.524E-02
RMM:  18     0.697849039779E+03   -0.47519E-02   -0.46634E-02   425   0.472E-02    0.534E-02
RMM:  19     0.697844419066E+03   -0.46207E-02   -0.45247E-02   430   0.483E-02    0.610E-02
RMM:  20     0.697839831620E+03   -0.45874E-02   -0.44913E-02   520   0.514E-02    0.743E-02
RMM:  21     0.697835236743E+03   -0.45949E-02   -0.44353E-02   514   0.513E-02    0.103E-01
RMM:  22     0.697830723001E+03   -0.45137E-02   -0.43794E-02   453   0.477E-02    0.136E-01
RMM:  23     0.697826390923E+03   -0.43321E-02   -0.42641E-02   435   0.474E-02    0.152E-01
RMM:  24     0.697822230323E+03   -0.41606E-02   -0.41828E-02   462   0.501E-02    0.160E-01
RMM:  25     0.697818074710E+03   -0.41556E-02   -0.41051E-02   510   0.508E-02    0.166E-01
RMM:  26     0.697813927745E+03   -0.41470E-02   -0.40583E-02   443   0.469E-02    0.179E-01
RMM:  27     0.697809893482E+03   -0.40343E-02   -0.39854E-02   392   0.426E-02    0.185E-01
RMM:  28     0.697805864519E+03   -0.40290E-02   -0.39308E-02   358   0.424E-02    0.197E-01
RMM:  29     0.697801956828E+03   -0.39077E-02   -0.38724E-02   412   0.440E-02    0.202E-01
RMM:  30     0.697798048123E+03   -0.39087E-02   -0.38253E-02   382   0.431E-02    0.212E-01
RMM:  31     0.697794174420E+03   -0.38737E-02   -0.37746E-02   355   0.416E-02    0.224E-01
RMM:  32     0.697790363533E+03   -0.38109E-02   -0.37299E-02   337   0.409E-02    0.236E-01
RMM:  33     0.697786586269E+03   -0.37773E-02   -0.36843E-02   330   0.394E-02    0.250E-01
RMM:  34     0.697782844369E+03   -0.37419E-02   -0.36433E-02   321   0.399E-02    0.265E-01
RMM:  35     0.697779157438E+03   -0.36869E-02   -0.36053E-02   289   0.379E-02    0.281E-01
RMM:  36     0.697775523681E+03   -0.36338E-02   -0.35636E-02   274   0.374E-02    0.296E-01
RMM:  37     0.697771943866E+03   -0.35798E-02   -0.35226E-02   305   0.392E-02    0.312E-01
RMM:  38     0.697768374545E+03   -0.35693E-02   -0.34947E-02   296   0.376E-02    0.329E-01
RMM:  39     0.697764837877E+03   -0.35367E-02   -0.34572E-02   282   0.363E-02    0.346E-01
RMM:  40     0.697761344942E+03   -0.34929E-02   -0.34199E-02   282   0.365E-02    0.364E-01
RMM:  41     0.697757939314E+03   -0.34056E-02   -0.33891E-02   350   0.382E-02    0.380E-01
RMM:  42     0.697754558079E+03   -0.33812E-02   -0.33559E-02   382   0.384E-02    0.397E-01
RMM:  43     0.697751136622E+03   -0.34215E-02   -0.33233E-02   360   0.392E-02    0.416E-01
RMM:  44     0.697747675168E+03   -0.34615E-02   -0.33021E-02   401   0.408E-02    0.439E-01
RMM:  45     0.697744295370E+03   -0.33798E-02   -0.32729E-02   419   0.432E-02    0.461E-01
RMM:  46     0.697740980242E+03   -0.33151E-02   -0.32413E-02   451   0.437E-02    0.482E-01
RMM:  47     0.697737682584E+03   -0.32977E-02   -0.32192E-02   370   0.397E-02    0.505E-01
RMM:  48     0.697734408920E+03   -0.32737E-02   -0.31925E-02   338   0.381E-02    0.528E-01
RMM:  49     0.697731175588E+03   -0.32333E-02   -0.31612E-02   344   0.387E-02    0.551E-01
RMM:  50     0.697727974360E+03   -0.32012E-02   -0.31430E-02   350   0.388E-02    0.574E-01
RMM:  51     0.697724804921E+03   -0.31694E-02   -0.31114E-02   330   0.370E-02    0.597E-01
RMM:  52     0.697721746543E+03   -0.30584E-02   -0.31012E-02   404   0.385E-02    0.617E-01
RMM:  53     0.697718597887E+03   -0.31487E-02   -0.30645E-02   337   0.370E-02    0.641E-01
RMM:  54     0.697715471118E+03   -0.31268E-02   -0.30484E-02   342   0.382E-02    0.665E-01
RMM:  55     0.697712369573E+03   -0.31015E-02   -0.30253E-02   369   0.386E-02    0.689E-01
RMM:  56     0.697709231235E+03   -0.31383E-02   -0.30082E-02   371   0.389E-02    0.715E-01
RMM:  57     0.697705963652E+03   -0.32676E-02   -0.30226E-02   476   0.421E-02    0.745E-01
RMM:  58     0.697703497622E+03   -0.24660E-02   -0.29537E-02   416   0.431E-02    0.759E-01
RMM:  59     0.697700795783E+03   -0.27018E-02   -0.29436E-02   540   0.475E-02    0.775E-01
RMM:  60     0.697697854473E+03   -0.29413E-02   -0.29069E-02   409   0.412E-02
   2 F= 0.69769785E+03 E0= 0.69771289E+03  d E =-.635531E+00
       N       E                     dE             d eps       ncg     rms          rms(c)
RMM:   1     0.694782475687E+03   -0.29183E+01   -0.14990E+02   659   0.191E+01    0.295E+00
RMM:   2     0.696536258726E+03    0.17538E+01    0.13035E+01   789   0.682E+00    0.387E+00
RMM:   3     0.696887454743E+03    0.35120E+00   -0.20980E+00   988   0.188E+00    0.195E+00
RMM:   4     0.696886939864E+03   -0.51488E-03   -0.96154E-01  1023   0.101E+00    0.129E+00
RMM:   5     0.696887875702E+03    0.93584E-03   -0.32801E-01  1025   0.641E-01    0.866E-01
RMM:   6     0.696875999981E+03   -0.11876E-01   -0.23049E-01  1031   0.483E-01    0.798E-01
RMM:   7     0.696882615094E+03    0.66151E-02   -0.11351E-01  1025   0.360E-01    0.410E-01
RMM:   8     0.696880797347E+03   -0.18177E-02   -0.77025E-02  1029   0.230E-01    0.232E-01
RMM:   9     0.696877013985E+03   -0.37834E-02   -0.56481E-02  1036   0.159E-01    0.177E-01
RMM:  10     0.696873758157E+03   -0.32558E-02   -0.40776E-02  1005   0.110E-01    0.201E-01
RMM:  11     0.696871197886E+03   -0.25603E-02   -0.30380E-02   943   0.787E-02    0.214E-01
RMM:  12     0.696868278959E+03   -0.29189E-02   -0.28323E-02   722   0.586E-02    0.272E-01
RMM:  13     0.696865837976E+03   -0.24410E-02   -0.28013E-02   830   0.641E-02    0.304E-01
RMM:  14     0.696863697318E+03   -0.21407E-02   -0.24550E-02   636   0.534E-02    0.329E-01
RMM:  15     0.696860874527E+03   -0.28228E-02   -0.24578E-02   524   0.501E-02    0.388E-01
RMM:  16     0.696857973064E+03   -0.29015E-02   -0.24893E-02   544   0.484E-02    0.453E-01
RMM:  17     0.696855098129E+03   -0.28749E-02   -0.24757E-02   546   0.482E-02    0.518E-01
RMM:  18     0.696852297530E+03   -0.28006E-02   -0.24509E-02   505   0.442E-02    0.581E-01
RMM:  19     0.696849975857E+03   -0.23217E-02   -0.23451E-02   446   0.408E-02    0.629E-01
RMM:  20     0.696847064062E+03   -0.29118E-02   -0.24135E-02   485   0.420E-02    0.693E-01
RMM:  21     0.696843842100E+03   -0.32220E-02   -0.24759E-02   590   0.475E-02    0.770E-01
RMM:  22     0.696841151930E+03   -0.26902E-02   -0.24097E-02   443   0.415E-02    0.833E-01
RMM:  23     0.696838780306E+03   -0.23716E-02   -0.23374E-02   447   0.424E-02    0.885E-01
RMM:  24     0.696836265716E+03   -0.25146E-02   -0.23146E-02   450   0.423E-02    0.940E-01
RMM:  25     0.696833912789E+03   -0.23529E-02   -0.22753E-02   430   0.418E-02    0.992E-01
RMM:  26     0.696831507408E+03   -0.24054E-02   -0.22469E-02   430   0.399E-02    0.105E+00
RMM:  27     0.696829245649E+03   -0.22618E-02   -0.22033E-02   364   0.350E-02    0.110E+00
RMM:  28     0.696827034790E+03   -0.22109E-02   -0.21659E-02   324   0.333E-02    0.114E+00
RMM:  29     0.696824909529E+03   -0.21253E-02   -0.21268E-02   333   0.334E-02    0.119E+00
RMM:  30     0.696822858419E+03   -0.20511E-02   -0.20858E-02   316   0.335E-02    0.123E+00
RMM:  31     0.696820980549E+03   -0.18779E-02   -0.20452E-02   356   0.333E-02    0.127E+00
RMM:  32     0.696818903053E+03   -0.20775E-02   -0.20242E-02   357   0.335E-02    0.131E+00
RMM:  33     0.696816742798E+03   -0.21603E-02   -0.20045E-02   325   0.314E-02    0.135E+00
RMM:  34     0.696814336763E+03   -0.24060E-02   -0.20005E-02   348   0.329E-02    0.139E+00
RMM:  35     0.696812096914E+03   -0.22398E-02   -0.19844E-02   377   0.340E-02    0.144E+00
RMM:  36     0.696809796210E+03   -0.23007E-02   -0.19782E-02   400   0.347E-02    0.148E+00
RMM:  37     0.696807810685E+03   -0.19855E-02   -0.19481E-02   379   0.339E-02    0.152E+00
RMM:  38     0.696805849331E+03   -0.19614E-02   -0.19200E-02   348   0.329E-02    0.156E+00
RMM:  39     0.696803970923E+03   -0.18784E-02   -0.18930E-02   354   0.336E-02    0.160E+00
RMM:  40     0.696802059164E+03   -0.19118E-02   -0.18709E-02   345   0.330E-02    0.164E+00
RMM:  41     0.696800207557E+03   -0.18516E-02   -0.18458E-02   314   0.316E-02    0.167E+00
RMM:  42     0.696798406854E+03   -0.18007E-02   -0.18252E-02   305   0.304E-02    0.170E+00
RMM:  43     0.696796545584E+03   -0.18613E-02   -0.18067E-02   281   0.292E-02    0.174E+00
RMM:  44     0.696794715934E+03   -0.18296E-02   -0.17880E-02   299   0.300E-02    0.177E+00
RMM:  45     0.696792884672E+03   -0.18313E-02   -0.17625E-02   297   0.303E-02    0.181E+00
RMM:  46     0.696791083348E+03   -0.18013E-02   -0.17449E-02   286   0.296E-02    0.184E+00
RMM:  47     0.696787950637E+03   -0.31327E-02   -0.18164E-02   469   0.334E-02    0.189E+00
RMM:  48     0.696786057712E+03   -0.18929E-02   -0.17703E-02   378   0.309E-02    0.193E+00
RMM:  49     0.696784183761E+03   -0.18740E-02   -0.17472E-02   388   0.329E-02    0.197E+00
RMM:  50     0.696782676945E+03   -0.15068E-02   -0.17087E-02   369   0.328E-02    0.201E+00
RMM:  51     0.696780950718E+03   -0.17262E-02   -0.16953E-02   393   0.353E-02    0.204E+00
RMM:  52     0.696781822793E+03    0.87207E-03   -0.16070E-02   459   0.376E-02    0.206E+00
RMM:  53     0.696780274534E+03   -0.15483E-02   -0.15940E-02   416   0.316E-02    0.208E+00
RMM:  54     0.696778600852E+03   -0.16737E-02   -0.15834E-02   385   0.316E-02    0.211E+00
RMM:  55     0.696776909537E+03   -0.16913E-02   -0.15648E-02   392   0.315E-02    0.214E+00
RMM:  56     0.696775066778E+03   -0.18428E-02   -0.15553E-02   433   0.342E-02    0.217E+00
RMM:  57     0.696790391594E+03    0.15325E-01   -0.21106E-02   809   0.976E-02    0.201E+00
RMM:  58     0.696789578248E+03   -0.81335E-03   -0.14146E-02   588   0.472E-02    0.199E+00
RMM:  59     0.696788800617E+03   -0.77763E-03   -0.15444E-02   467   0.394E-02    0.195E+00
RMM:  60     0.696787936235E+03   -0.86438E-03   -0.13944E-02   502   0.390E-02
   3 F= 0.69678794E+03 E0= 0.69679540E+03  d E =-.154545E+01
       N       E                     dE             d eps       ncg     rms          rms(c)
RMM:   1     0.690092108688E+03   -0.66967E+01   -0.56853E+02   664   0.378E+01    0.685E+00
RMM:   2     0.696746169565E+03    0.66541E+01    0.71720E+01   732   0.186E+01    0.966E+00
RMM:   3     0.696155107646E+03   -0.59106E+00   -0.12648E+01   925   0.496E+00    0.538E+00
RMM:   4     0.696434606165E+03    0.27950E+00   -0.52805E+00  1011   0.250E+00    0.362E+00
RMM:   5     0.696497324134E+03    0.62718E-01   -0.17947E+00  1021   0.149E+00    0.253E+00
RMM:   6     0.696518004885E+03    0.20681E-01   -0.99048E-01  1028   0.996E-01    0.165E+00
RMM:   7     0.696497473581E+03   -0.20531E-01   -0.78144E-01  1020   0.829E-01    0.100E+00
RMM:   8     0.696500269544E+03    0.27960E-02   -0.34812E-01  1029   0.553E-01    0.509E-01
RMM:   9     0.696488260660E+03   -0.12009E-01   -0.18789E-01  1022   0.341E-01    0.528E-01
RMM:  10     0.696485672275E+03   -0.25884E-02   -0.91597E-02  1032   0.251E-01    0.429E-01
RMM:  11     0.696483666051E+03   -0.20062E-02   -0.64753E-02  1022   0.215E-01    0.251E-01
RMM:  12     0.696479809791E+03   -0.38563E-02   -0.50874E-02  1022   0.172E-01    0.224E-01
RMM:  13     0.696478090299E+03   -0.17195E-02   -0.30431E-02  1006   0.104E-01    0.175E-01
RMM:  14     0.696476079135E+03   -0.20112E-02   -0.29118E-02   989   0.878E-02    0.968E-02
RMM:  15     0.696473576319E+03   -0.25028E-02   -0.27407E-02   948   0.718E-02    0.948E-02
RMM:  16     0.696471648036E+03   -0.19283E-02   -0.20599E-02   681   0.538E-02    0.888E-02
RMM:  17     0.696469779466E+03   -0.18686E-02   -0.20656E-02   775   0.644E-02    0.311E-02
RMM:  18     0.696467734220E+03   -0.20452E-02   -0.19273E-02   794   0.584E-02    0.693E-02
RMM:  19     0.696466085856E+03   -0.16484E-02   -0.16400E-02   501   0.448E-02    0.517E-02
RMM:  20     0.696464472675E+03   -0.16132E-02   -0.16101E-02   524   0.441E-02    0.241E-02
RMM:  21     0.696462882547E+03   -0.15901E-02   -0.15274E-02   589   0.481E-02    0.144E-02
RMM:  22     0.696461395662E+03   -0.14869E-02   -0.14346E-02   481   0.378E-02    0.173E-02
RMM:  23     0.696459987726E+03   -0.14079E-02   -0.13590E-02   488   0.369E-02    0.139E-02
RMM:  24     0.696458631427E+03   -0.13563E-02   -0.13163E-02   451   0.353E-02    0.166E-02
RMM:  25     0.696457332863E+03   -0.12986E-02   -0.12727E-02   438   0.354E-02    0.205E-02
RMM:  26     0.696456060093E+03   -0.12728E-02   -0.12293E-02   455   0.345E-02    0.219E-02
RMM:  27     0.696454825490E+03   -0.12346E-02   -0.11871E-02   448   0.348E-02    0.216E-02
RMM:  28     0.696453624210E+03   -0.12013E-02   -0.11528E-02   477   0.364E-02    0.175E-02
RMM:  29     0.696452450282E+03   -0.11739E-02   -0.11208E-02   507   0.385E-02    0.156E-02
RMM:  30     0.696451337115E+03   -0.11132E-02   -0.10775E-02   467   0.355E-02    0.179E-02
RMM:  31     0.696450271914E+03   -0.10652E-02   -0.10446E-02   430   0.327E-02    0.217E-02
RMM:  32     0.696449221336E+03   -0.10506E-02   -0.10230E-02   407   0.326E-02    0.282E-02
RMM:  33     0.696448208545E+03   -0.10128E-02   -0.98834E-03   432   0.337E-02    0.312E-02
RMM:  34     0.696447217253E+03   -0.99129E-03   -0.97102E-03   405   0.322E-02    0.349E-02
RMM:  35     0.696446254653E+03   -0.96260E-03   -0.94393E-03   352   0.283E-02    0.406E-02
RMM:  36     0.696445306535E+03   -0.94812E-03   -0.92782E-03   353   0.276E-02    0.441E-02
RMM:  37     0.696444391650E+03   -0.91489E-03   -0.89680E-03   355   0.270E-02    0.484E-02
RMM:  38     0.696443490945E+03   -0.90071E-03   -0.88201E-03   328   0.263E-02    0.532E-02
RMM:  39     0.696442609108E+03   -0.88184E-03   -0.86348E-03   345   0.281E-02    0.593E-02
RMM:  40     0.696441746638E+03   -0.86247E-03   -0.84459E-03   341   0.264E-02    0.650E-02
RMM:  41     0.696440900060E+03   -0.84658E-03   -0.82996E-03   320   0.251E-02    0.714E-02
RMM:  42     0.696440068902E+03   -0.83116E-03   -0.81523E-03   328   0.247E-02    0.778E-02
RMM:  43     0.696439254839E+03   -0.81406E-03   -0.79924E-03   315   0.242E-02    0.846E-02
RMM:  44     0.696438453813E+03   -0.80103E-03   -0.78445E-03   312   0.244E-02    0.921E-02
RMM:  45     0.696437666334E+03   -0.78748E-03   -0.77237E-03   339   0.257E-02    0.999E-02
RMM:  46     0.696436891134E+03   -0.77520E-03   -0.76012E-03   326   0.244E-02    0.108E-01
RMM:  47     0.696436122349E+03   -0.76878E-03   -0.74790E-03   325   0.249E-02    0.118E-01
RMM:  48     0.696435368311E+03   -0.75404E-03   -0.73954E-03   334   0.243E-02    0.127E-01
RMM:  49     0.696434625790E+03   -0.74252E-03   -0.72719E-03   309   0.236E-02    0.137E-01
RMM:  50     0.696433901055E+03   -0.72474E-03   -0.71071E-03   330   0.240E-02    0.147E-01
RMM:  51     0.696433182619E+03   -0.71844E-03   -0.70232E-03   289   0.233E-02    0.158E-01
RMM:  52     0.696432468688E+03   -0.71393E-03   -0.69551E-03   296   0.227E-02    0.169E-01
RMM:  53     0.696431771098E+03   -0.69759E-03   -0.68333E-03   290   0.226E-02    0.181E-01
RMM:  54     0.696431082496E+03   -0.68860E-03   -0.67421E-03   305   0.232E-02    0.193E-01
RMM:  55     0.696430401288E+03   -0.68121E-03   -0.66705E-03   287   0.231E-02    0.205E-01
RMM:  56     0.696429727290E+03   -0.67400E-03   -0.66015E-03   299   0.228E-02    0.217E-01
RMM:  57     0.696429070263E+03   -0.65703E-03   -0.64831E-03   281   0.225E-02    0.229E-01
RMM:  58     0.696428424783E+03   -0.64548E-03   -0.64095E-03   282   0.216E-02    0.241E-01
RMM:  59     0.696427786158E+03   -0.63863E-03   -0.63216E-03   283   0.226E-02    0.253E-01
RMM:  60     0.696427159447E+03   -0.62671E-03   -0.62770E-03   360   0.239E-02
   4 F= 0.69642716E+03 E0= 0.69643655E+03  d E =-.190623E+01
       N       E                     dE             d eps       ncg     rms          rms(c)
RMM:   1     0.695780716420E+03   -0.64707E+00   -0.45633E+01   661   0.106E+01    0.148E+00
RMM:   2     0.696361469510E+03    0.58075E+00    0.41849E+00   798   0.373E+00    0.131E+00
RMM:   3     0.696361309842E+03   -0.15967E-03   -0.57011E-01   995   0.101E+00    0.817E-01
RMM:   4     0.696357473542E+03   -0.38363E-02   -0.20324E-01  1028   0.495E-01    0.581E-01
RMM:   5     0.696356782442E+03   -0.69110E-03   -0.88751E-02  1027   0.330E-01    0.417E-01
RMM:   6     0.696355870142E+03   -0.91230E-03   -0.59393E-02  1019   0.263E-01    0.327E-01
RMM:   7     0.696357589813E+03    0.17197E-02   -0.26423E-02  1028   0.171E-01    0.130E-01
RMM:   8     0.696356397525E+03   -0.11923E-02   -0.17731E-02  1018   0.109E-01    0.920E-02
RMM:   9     0.696355792212E+03   -0.60531E-03   -0.92059E-03   983   0.740E-02    0.798E-02
RMM:  10     0.696355169695E+03   -0.62252E-03   -0.77590E-03   902   0.538E-02    0.689E-02
RMM:  11     0.696354683537E+03   -0.48616E-03   -0.62144E-03   765   0.442E-02    0.394E-02
RMM:  12     0.696354158026E+03   -0.52551E-03   -0.56669E-03   548   0.396E-02    0.263E-02
RMM:  13     0.696353658822E+03   -0.49920E-03   -0.53076E-03   555   0.397E-02    0.258E-02
RMM:  14     0.696353162685E+03   -0.49614E-03   -0.50653E-03   528   0.339E-02    0.224E-02
RMM:  15     0.696352707408E+03   -0.45528E-03   -0.45829E-03   525   0.371E-02    0.130E-02
RMM:  16     0.696352237254E+03   -0.47015E-03   -0.46197E-03   472   0.270E-02    0.913E-03
RMM:  17     0.696351786897E+03   -0.45036E-03   -0.43917E-03   443   0.259E-02    0.837E-03
RMM:  18     0.696351340353E+03   -0.44654E-03   -0.43602E-03   467   0.281E-02    0.656E-03
RMM:  19     0.696350900073E+03   -0.44028E-03   -0.43080E-03   452   0.275E-02    0.493E-03
RMM:  20     0.696350471308E+03   -0.42877E-03   -0.41918E-03   474   0.274E-02    0.402E-03
RMM:  21     0.696350047782E+03   -0.42353E-03   -0.41414E-03   416   0.253E-02    0.452E-03
RMM:  22     0.696349630487E+03   -0.41729E-03   -0.40849E-03   398   0.238E-02    0.607E-03
RMM:  23     0.696349220211E+03   -0.41028E-03   -0.40128E-03   383   0.233E-02    0.856E-03
RMM:  24     0.696348815152E+03   -0.40506E-03   -0.39649E-03   392   0.232E-02    0.110E-02
RMM:  25     0.696348415139E+03   -0.40001E-03   -0.39148E-03   360   0.226E-02    0.136E-02
RMM:  26     0.696348023204E+03   -0.39194E-03   -0.38357E-03   337   0.218E-02    0.164E-02
RMM:  27     0.696347633397E+03   -0.38981E-03   -0.38152E-03   314   0.204E-02    0.196E-02
RMM:  28     0.696347249263E+03   -0.38413E-03   -0.37608E-03   308   0.197E-02    0.232E-02
RMM:  29     0.696346869964E+03   -0.37930E-03   -0.37122E-03   283   0.193E-02    0.272E-02
RMM:  30     0.696346493443E+03   -0.37652E-03   -0.36835E-03   280   0.190E-02    0.312E-02
RMM:  31     0.696346121078E+03   -0.37237E-03   -0.36464E-03   281   0.193E-02    0.353E-02
RMM:  32     0.696345754403E+03   -0.36667E-03   -0.35893E-03   289   0.194E-02    0.397E-02
RMM:  33     0.696345387843E+03   -0.36656E-03   -0.35894E-03   277   0.186E-02    0.444E-02
RMM:  34     0.696345023936E+03   -0.36391E-03   -0.35629E-03   260   0.179E-02    0.492E-02
RMM:  35     0.696344662377E+03   -0.36156E-03   -0.35414E-03   258   0.175E-02    0.540E-02
RMM:  36     0.696344307754E+03   -0.35462E-03   -0.34722E-03   279   0.186E-02    0.590E-02
RMM:  37     0.696343955121E+03   -0.35263E-03   -0.34520E-03   267   0.180E-02    0.641E-02
RMM:  38     0.696343605474E+03   -0.34965E-03   -0.34233E-03   265   0.174E-02    0.695E-02
RMM:  39     0.696343258498E+03   -0.34698E-03   -0.34001E-03   245   0.170E-02    0.751E-02
RMM:  40     0.696342911653E+03   -0.34684E-03   -0.33989E-03   275   0.186E-02    0.807E-02
RMM:  41     0.696342567260E+03   -0.34439E-03   -0.33732E-03   263   0.175E-02    0.862E-02
RMM:  42     0.696342226994E+03   -0.34027E-03   -0.33347E-03   253   0.175E-02    0.920E-02
RMM:  43     0.696341886609E+03   -0.34038E-03   -0.33351E-03   268   0.181E-02    0.979E-02
RMM:  44     0.696341549576E+03   -0.33703E-03   -0.33040E-03   253   0.176E-02    0.104E-01
RMM:  45     0.696341216213E+03   -0.33336E-03   -0.32676E-03   250   0.178E-02    0.110E-01
RMM:  46     0.696340885053E+03   -0.33116E-03   -0.32488E-03   260   0.181E-02    0.117E-01
RMM:  47     0.696340554442E+03   -0.33061E-03   -0.32447E-03   264   0.189E-02    0.123E-01
RMM:  48     0.696340224280E+03   -0.33016E-03   -0.32352E-03   267   0.182E-02    0.130E-01
RMM:  49     0.696339897399E+03   -0.32688E-03   -0.32059E-03   266   0.180E-02    0.136E-01
RMM:  50     0.696339573155E+03   -0.32424E-03   -0.31828E-03   256   0.178E-02    0.143E-01
RMM:  51     0.696339247598E+03   -0.32556E-03   -0.31950E-03   277   0.187E-02    0.150E-01
RMM:  52     0.696338926334E+03   -0.32126E-03   -0.31580E-03   259   0.178E-02    0.157E-01
RMM:  53     0.696338613205E+03   -0.31313E-03   -0.30683E-03   273   0.187E-02    0.164E-01
RMM:  54     0.696338298989E+03   -0.31422E-03   -0.30830E-03   266   0.180E-02    0.171E-01
RMM:  55     0.696337981900E+03   -0.31709E-03   -0.31117E-03   263   0.182E-02    0.178E-01
RMM:  56     0.696337669035E+03   -0.31287E-03   -0.30727E-03   269   0.183E-02    0.185E-01
RMM:  57     0.696337352369E+03   -0.31667E-03   -0.30672E-03   253   0.176E-02    0.193E-01
RMM:  58     0.696337044343E+03   -0.30803E-03   -0.30183E-03   273   0.179E-02    0.201E-01
RMM:  59     0.696336731121E+03   -0.31322E-03   -0.30784E-03   283   0.182E-02    0.208E-01
RMM:  60     0.696336428870E+03   -0.30225E-03   -0.29659E-03   241   0.178E-02
   5 F= 0.69633643E+03 E0= 0.69634358E+03  d E =-.199696E+01
       N       E                     dE             d eps       ncg     rms          rms(c)
RMM:   1     0.695786727057E+03   -0.55000E+00   -0.22731E+01   661   0.747E+00    0.108E+00
RMM:   2     0.696159844160E+03    0.37312E+00    0.27295E+00   801   0.275E+00    0.985E-01
RMM:   3     0.696168952564E+03    0.91084E-02   -0.26219E-01  1024   0.666E-01    0.595E-01
RMM:   4     0.696170168346E+03    0.12158E-02   -0.88321E-02  1032   0.352E-01    0.393E-01
RMM:   5     0.696169988980E+03   -0.17937E-03   -0.42125E-02  1030   0.237E-01    0.304E-01
RMM:   6     0.696170449845E+03    0.46087E-03   -0.26435E-02  1030   0.195E-01    0.211E-01
RMM:   7     0.696171211945E+03    0.76210E-03   -0.12534E-02  1029   0.125E-01    0.769E-02
RMM:   8     0.696170548400E+03   -0.66355E-03   -0.89228E-03  1020   0.839E-02    0.737E-02
RMM:   9     0.696170257490E+03   -0.29091E-03   -0.47286E-03   847   0.541E-02    0.586E-02
RMM:  10     0.696169935760E+03   -0.32173E-03   -0.37782E-03   710   0.402E-02    0.511E-02
RMM:  11     0.696169647839E+03   -0.28792E-03   -0.32794E-03   560   0.371E-02    0.382E-02
RMM:  12     0.696169359688E+03   -0.28815E-03   -0.32696E-03   557   0.346E-02    0.200E-02
RMM:  13     0.696169060938E+03   -0.29875E-03   -0.31538E-03   517   0.333E-02    0.156E-02
RMM:  14     0.696168784196E+03   -0.27674E-03   -0.27501E-03   546   0.359E-02    0.178E-02
RMM:  15     0.696168518882E+03   -0.26531E-03   -0.26494E-03   437   0.275E-02    0.190E-02
RMM:  16     0.696168250543E+03   -0.26834E-03   -0.26605E-03   454   0.246E-02    0.205E-02
RMM:  17     0.696167990050E+03   -0.26049E-03   -0.25445E-03   436   0.240E-02    0.240E-02
RMM:  18     0.696167724161E+03   -0.26589E-03   -0.26169E-03   466   0.266E-02    0.269E-02
RMM:  19     0.696167465817E+03   -0.25834E-03   -0.25290E-03   422   0.235E-02    0.304E-02
RMM:  20     0.696167207887E+03   -0.25793E-03   -0.25423E-03   395   0.224E-02    0.336E-02
RMM:  21     0.696166955017E+03   -0.25287E-03   -0.24730E-03   361   0.212E-02    0.372E-02
RMM:  22     0.696166703910E+03   -0.25111E-03   -0.24687E-03   361   0.216E-02    0.405E-02
RMM:  23     0.696166456514E+03   -0.24740E-03   -0.24217E-03   319   0.193E-02    0.442E-02
RMM:  24     0.696166206863E+03   -0.24965E-03   -0.24444E-03   315   0.202E-02    0.483E-02
RMM:  25     0.696165963331E+03   -0.24353E-03   -0.23985E-03   315   0.207E-02    0.520E-02
RMM:  26     0.696165717022E+03   -0.24631E-03   -0.24206E-03   313   0.194E-02    0.561E-02
RMM:  27     0.696165473357E+03   -0.24366E-03   -0.23878E-03   296   0.184E-02    0.603E-02
RMM:  28     0.696165232053E+03   -0.24130E-03   -0.23679E-03   281   0.178E-02    0.644E-02
RMM:  29     0.696164997188E+03   -0.23487E-03   -0.22989E-03   295   0.185E-02    0.687E-02
RMM:  30     0.696164763639E+03   -0.23355E-03   -0.22908E-03   263   0.184E-02    0.727E-02
RMM:  31     0.696164526468E+03   -0.23717E-03   -0.23257E-03   288   0.196E-02    0.771E-02
RMM:  32     0.696164289812E+03   -0.23666E-03   -0.23230E-03   305   0.190E-02    0.815E-02
RMM:  33     0.696164060118E+03   -0.22969E-03   -0.22459E-03   285   0.180E-02    0.860E-02
RMM:  34     0.696163827590E+03   -0.23253E-03   -0.22815E-03   283   0.181E-02    0.906E-02
RMM:  35     0.696163598965E+03   -0.22863E-03   -0.22391E-03   289   0.183E-02    0.954E-02
RMM:  36     0.696163371069E+03   -0.22790E-03   -0.22364E-03   275   0.185E-02    0.100E-01
RMM:  37     0.696163141130E+03   -0.22994E-03   -0.22530E-03   285   0.181E-02    0.105E-01
RMM:  38     0.696162917331E+03   -0.22380E-03   -0.21993E-03   274   0.178E-02    0.110E-01
RMM:  39     0.696162690836E+03   -0.22650E-03   -0.22200E-03   289   0.186E-02    0.115E-01
RMM:  40     0.696162466946E+03   -0.22389E-03   -0.21997E-03   295   0.190E-02    0.120E-01
RMM:  41     0.696162241184E+03   -0.22576E-03   -0.22180E-03   294   0.188E-02    0.125E-01
RMM:  42     0.696162019754E+03   -0.22143E-03   -0.21757E-03   275   0.180E-02    0.131E-01
RMM:  43     0.696161799109E+03   -0.22065E-03   -0.21656E-03   278   0.183E-02    0.136E-01
RMM:  44     0.696161576091E+03   -0.22302E-03   -0.21856E-03   301   0.191E-02    0.142E-01
RMM:  45     0.696161361139E+03   -0.21495E-03   -0.21146E-03   332   0.190E-02    0.147E-01
RMM:  46     0.696161128141E+03   -0.23300E-03   -0.22181E-03   413   0.214E-02    0.154E-01
RMM:  47     0.696160884079E+03   -0.24406E-03   -0.22292E-03   410   0.222E-02    0.161E-01
RMM:  48     0.696160660797E+03   -0.22328E-03   -0.21507E-03   385   0.218E-02    0.168E-01
RMM:  49     0.696160436392E+03   -0.22440E-03   -0.21822E-03   416   0.244E-02    0.176E-01
RMM:  50     0.696160215333E+03   -0.22106E-03   -0.21708E-03   400   0.241E-02    0.183E-01
RMM:  51     0.696160002646E+03   -0.21269E-03   -0.20843E-03   369   0.221E-02    0.190E-01
RMM:  52     0.696159784832E+03   -0.21781E-03   -0.21250E-03   363   0.213E-02    0.198E-01
RMM:  53     0.696159566028E+03   -0.21880E-03   -0.21303E-03   285   0.178E-02    0.205E-01
RMM:  54     0.696159353297E+03   -0.21273E-03   -0.20868E-03   309   0.184E-02    0.213E-01
RMM:  55     0.696159138697E+03   -0.21460E-03   -0.21132E-03   298   0.188E-02    0.221E-01
RMM:  56     0.696158921431E+03   -0.21727E-03   -0.21370E-03   301   0.183E-02    0.229E-01
RMM:  57     0.696158716158E+03   -0.20527E-03   -0.20971E-03   288   0.178E-02    0.237E-01
RMM:  58     0.696158505431E+03   -0.21073E-03   -0.20863E-03   275   0.176E-02    0.245E-01
RMM:  59     0.696158291188E+03   -0.21424E-03   -0.21174E-03   289   0.173E-02    0.253E-01
RMM:  60     0.696158079533E+03   -0.21165E-03   -0.20822E-03   277   0.182E-02
   6 F= 0.69615808E+03 E0= 0.69616755E+03  d E =-.178349E+00
       N       E                     dE             d eps       ncg     rms          rms(c)
RMM:   1     0.693829556890E+03   -0.23287E+01   -0.13045E+02   661   0.179E+01    0.251E+00
RMM:   2     0.695925628421E+03    0.20961E+01    0.15093E+01   783   0.646E+00    0.236E+00
RMM:   3     0.695998501495E+03    0.72873E-01   -0.14725E+00  1014   0.164E+00    0.134E+00
RMM:   4     0.695990852638E+03   -0.76489E-02   -0.52130E-01  1030   0.834E-01    0.979E-01
RMM:   5     0.695990749742E+03   -0.10290E-03   -0.23314E-01  1031   0.567E-01    0.701E-01
RMM:   6     0.695990183971E+03   -0.56577E-03   -0.13728E-01  1026   0.453E-01    0.533E-01
RMM:   7     0.695995213548E+03    0.50296E-02   -0.56486E-02  1035   0.290E-01    0.216E-01
RMM:   8     0.695992867417E+03   -0.23461E-02   -0.37936E-02  1036   0.191E-01    0.168E-01
RMM:   9     0.695992206252E+03   -0.66117E-03   -0.16443E-02  1034   0.126E-01    0.137E-01
RMM:  10     0.695991547166E+03   -0.65909E-03   -0.10168E-02   994   0.846E-02    0.130E-01
RMM:  11     0.695991222961E+03   -0.32420E-03   -0.57172E-03   895   0.602E-02    0.108E-01
RMM:  12     0.695990893980E+03   -0.32898E-03   -0.51577E-03   879   0.516E-02    0.756E-02
RMM:  13     0.695990586387E+03   -0.30759E-03   -0.48951E-03   858   0.513E-02    0.395E-02
RMM:  14     0.695990198216E+03   -0.38817E-03   -0.41145E-03   589   0.373E-02    0.457E-02
RMM:  15     0.695989910940E+03   -0.28728E-03   -0.31409E-03   474   0.304E-02    0.450E-02
RMM:  16     0.695989622103E+03   -0.28884E-03   -0.30550E-03   493   0.320E-02    0.435E-02
RMM:  17     0.695989335714E+03   -0.28639E-03   -0.28648E-03   599   0.374E-02    0.459E-02
RMM:  18     0.695989063723E+03   -0.27199E-03   -0.27001E-03   468   0.247E-02    0.494E-02
RMM:  19     0.695988788994E+03   -0.27473E-03   -0.26634E-03   448   0.237E-02    0.547E-02
RMM:  20     0.695988557635E+03   -0.23136E-03   -0.24563E-03   435   0.239E-02    0.528E-02
RMM:  21     0.695988332428E+03   -0.22521E-03   -0.25373E-03   484   0.285E-02    0.410E-02
RMM:  22     0.695988035651E+03   -0.29678E-03   -0.33560E-03   620   0.376E-02    0.273E-02
RMM:  23     0.695987791818E+03   -0.24383E-03   -0.24305E-03   465   0.251E-02    0.337E-02
RMM:  24     0.695987580835E+03   -0.21098E-03   -0.23734E-03   456   0.280E-02    0.220E-02
RMM:  25     0.695987357692E+03   -0.22314E-03   -0.22391E-03   555   0.317E-02    0.196E-02
RMM:  26     0.695987130243E+03   -0.22745E-03   -0.22406E-03   479   0.276E-02    0.188E-02
RMM:  27     0.695986917302E+03   -0.21294E-03   -0.21128E-03   431   0.221E-02    0.152E-02
RMM:  28     0.695986712511E+03   -0.20479E-03   -0.20099E-03   421   0.213E-02    0.147E-02
RMM:  29     0.695986508703E+03   -0.20381E-03   -0.19893E-03   374   0.213E-02    0.175E-02
RMM:  30     0.695986302846E+03   -0.20586E-03   -0.20153E-03   374   0.200E-02    0.188E-02
RMM:  31     0.695986107598E+03   -0.19525E-03   -0.19096E-03   327   0.170E-02    0.218E-02
RMM:  32     0.695985906287E+03   -0.20131E-03   -0.19450E-03   334   0.162E-02    0.258E-02
RMM:  33     0.695985709863E+03   -0.19642E-03   -0.19087E-03   356   0.191E-02    0.297E-02
RMM:  34     0.695985516971E+03   -0.19289E-03   -0.18847E-03   411   0.208E-02    0.333E-02
RMM:  35     0.695985333642E+03   -0.18333E-03   -0.18065E-03   420   0.219E-02    0.364E-02
RMM:  36     0.695985150104E+03   -0.18354E-03   -0.18403E-03   411   0.225E-02    0.382E-02
RMM:  37     0.695984967236E+03   -0.18287E-03   -0.17981E-03   425   0.229E-02    0.413E-02
RMM:  38     0.695984787259E+03   -0.17998E-03   -0.17647E-03   402   0.228E-02    0.445E-02
RMM:  39     0.695984612996E+03   -0.17426E-03   -0.17010E-03   423   0.229E-02    0.476E-02
RMM:  40     0.695984433185E+03   -0.17981E-03   -0.17369E-03   349   0.198E-02    0.516E-02
RMM:  41     0.695984258475E+03   -0.17471E-03   -0.17100E-03   321   0.181E-02    0.552E-02
RMM:  42     0.695984089944E+03   -0.16853E-03   -0.16532E-03   284   0.165E-02    0.586E-02
RMM:  43     0.695983919652E+03   -0.17029E-03   -0.16775E-03   299   0.171E-02    0.619E-02
RMM:  44     0.695983753183E+03   -0.16647E-03   -0.16426E-03   273   0.161E-02    0.650E-02
RMM:  45     0.695983587625E+03   -0.16556E-03   -0.16435E-03   280   0.163E-02    0.679E-02
RMM:  46     0.695983419590E+03   -0.16804E-03   -0.16438E-03   265   0.152E-02    0.711E-02
RMM:  47     0.695983258555E+03   -0.16104E-03   -0.16189E-03   262   0.151E-02    0.738E-02
RMM:  48     0.695983094060E+03   -0.16449E-03   -0.16137E-03   263   0.155E-02    0.769E-02
RMM:  49     0.695982929312E+03   -0.16475E-03   -0.16132E-03   269   0.163E-02    0.805E-02
RMM:  50     0.695982765427E+03   -0.16388E-03   -0.16042E-03   262   0.163E-02    0.844E-02
RMM:  51     0.695982609401E+03   -0.15603E-03   -0.15255E-03   289   0.180E-02    0.881E-02
RMM:  52     0.695982433627E+03   -0.17577E-03   -0.15911E-03   289   0.170E-02    0.941E-02
RMM:  53     0.695982270881E+03   -0.16275E-03   -0.15820E-03   270   0.166E-02    0.989E-02
RMM:  54     0.695982109981E+03   -0.16090E-03   -0.15767E-03   276   0.158E-02    0.104E-01
RMM:  55     0.695981949362E+03   -0.16062E-03   -0.15603E-03   268   0.159E-02    0.109E-01
RMM:  56     0.695981790894E+03   -0.15847E-03   -0.15587E-03   280   0.169E-02    0.114E-01
RMM:  57     0.695981634268E+03   -0.15663E-03   -0.15672E-03   278   0.173E-02    0.119E-01
RMM:  58     0.695981473646E+03   -0.16062E-03   -0.15656E-03   272   0.164E-02    0.124E-01
RMM:  59     0.695981314875E+03   -0.15877E-03   -0.15527E-03   271   0.158E-02    0.129E-01
RMM:  60     0.695981164079E+03   -0.15080E-03   -0.14965E-03   271   0.160E-02
   7 F= 0.69598116E+03 E0= 0.69599593E+03  d E =-.355265E+00
       N       E                     dE             d eps       ncg     rms          rms(c)
RMM:   1     0.695348774709E+03   -0.63254E+00   -0.33018E+01   671   0.937E+00    0.129E+00
RMM:   2     0.695857379237E+03    0.50860E+00    0.37851E+00   813   0.316E+00    0.923E-01
RMM:   3     0.695854529914E+03   -0.28493E-02   -0.36455E-01  1008   0.849E-01    0.571E-01
RMM:   4     0.695850372793E+03   -0.41571E-02   -0.13445E-01  1028   0.445E-01    0.361E-01
RMM:   5     0.695844693141E+03   -0.56797E-02   -0.83881E-02  1030   0.309E-01    0.388E-01
RMM:   6     0.695846521842E+03    0.18287E-02   -0.35588E-02  1027   0.223E-01    0.208E-01
RMM:   7     0.695846178948E+03   -0.34289E-03   -0.18582E-02  1029   0.143E-01    0.984E-02
RMM:   8     0.695845431282E+03   -0.74767E-03   -0.99550E-03  1006   0.948E-02    0.886E-02
RMM:   9     0.695845151158E+03   -0.28012E-03   -0.53967E-03   951   0.648E-02    0.742E-02
RMM:  10     0.695844911286E+03   -0.23987E-03   -0.32299E-03   749   0.449E-02    0.721E-02
RMM:  11     0.695844740812E+03   -0.17047E-03   -0.24154E-03   631   0.375E-02    0.616E-02
RMM:  12     0.695844572980E+03   -0.16783E-03   -0.23227E-03   581   0.359E-02    0.410E-02
RMM:  13     0.695844343342E+03   -0.22964E-03   -0.31458E-03   692   0.413E-02    0.366E-02
RMM:  14     0.695844127067E+03   -0.21627E-03   -0.21465E-03   509   0.293E-02    0.491E-02
RMM:  15     0.695843999940E+03   -0.12713E-03   -0.17379E-03   491   0.302E-02    0.445E-02
RMM:  16     0.695843867725E+03   -0.13221E-03   -0.14819E-03   445   0.284E-02    0.438E-02
RMM:  17     0.695843705766E+03   -0.16196E-03   -0.16757E-03   516   0.306E-02    0.427E-02
RMM:  18     0.695843552404E+03   -0.15336E-03   -0.15256E-03   410   0.213E-02    0.442E-02
RMM:  19     0.695843391202E+03   -0.16120E-03   -0.15712E-03   440   0.232E-02    0.466E-02
RMM:  20     0.695843239207E+03   -0.15200E-03   -0.14962E-03   423   0.218E-02    0.490E-02
RMM:  21     0.695843093252E+03   -0.14595E-03   -0.14792E-03   385   0.196E-02    0.503E-02
RMM:  22     0.695842938753E+03   -0.15450E-03   -0.14962E-03   382   0.212E-02    0.531E-02
RMM:  23     0.695842798902E+03   -0.13985E-03   -0.13884E-03   359   0.195E-02    0.554E-02
RMM:  24     0.695842653973E+03   -0.14493E-03   -0.14238E-03   340   0.201E-02    0.575E-02
RMM:  25     0.695842505651E+03   -0.14832E-03   -0.14573E-03   310   0.176E-02    0.595E-02
RMM:  26     0.695842364500E+03   -0.14115E-03   -0.13779E-03   271   0.156E-02    0.622E-02
RMM:  27     0.695842220628E+03   -0.14387E-03   -0.14065E-03   280   0.168E-02    0.649E-02
RMM:  28     0.695842077027E+03   -0.14360E-03   -0.14096E-03   290   0.165E-02    0.674E-02
RMM:  29     0.695841932757E+03   -0.14427E-03   -0.13954E-03   264   0.153E-02    0.709E-02
RMM:  30     0.695841796136E+03   -0.13662E-03   -0.13961E-03   291   0.166E-02    0.728E-02
RMM:  31     0.695841662337E+03   -0.13380E-03   -0.13625E-03   297   0.170E-02    0.743E-02
RMM:  32     0.695841525916E+03   -0.13642E-03   -0.14134E-03   329   0.166E-02    0.750E-02
RMM:  33     0.695841410453E+03   -0.11546E-03   -0.14230E-03   364   0.172E-02    0.714E-02
RMM:  34     0.695841274968E+03   -0.13549E-03   -0.18045E-03   461   0.239E-02    0.561E-02
RMM:  35     0.695841096879E+03   -0.17809E-03   -0.18773E-03   471   0.270E-02    0.500E-02
RMM:  36     0.695840942048E+03   -0.15483E-03   -0.15025E-03   483   0.256E-02    0.543E-02
RMM:  37     0.695840794198E+03   -0.14785E-03   -0.14361E-03   414   0.219E-02    0.587E-02
RMM:  38     0.695840649846E+03   -0.14435E-03   -0.13966E-03   420   0.229E-02    0.637E-02
RMM:  39     0.695840506880E+03   -0.14297E-03   -0.13958E-03   419   0.239E-02    0.686E-02
RMM:  40     0.695840371084E+03   -0.13580E-03   -0.13273E-03   411   0.221E-02    0.736E-02
RMM:  41     0.695840228210E+03   -0.14287E-03   -0.13996E-03   408   0.222E-02    0.787E-02
RMM:  42     0.695840094162E+03   -0.13405E-03   -0.13051E-03   330   0.171E-02    0.837E-02
RMM:  43     0.695839957051E+03   -0.13711E-03   -0.13374E-03   330   0.189E-02    0.889E-02
RMM:  44     0.695839816741E+03   -0.14031E-03   -0.13727E-03   336   0.186E-02    0.941E-02
RMM:  45     0.695839682493E+03   -0.13425E-03   -0.12992E-03   306   0.160E-02    0.994E-02
RMM:  46     0.695839543681E+03   -0.13881E-03   -0.13588E-03   315   0.174E-02    0.105E-01
RMM:  47     0.695839405290E+03   -0.13839E-03   -0.13355E-03   288   0.158E-02    0.110E-01
RMM:  48     0.695839267404E+03   -0.13789E-03   -0.13326E-03   290   0.167E-02    0.116E-01
RMM:  49     0.695839130215E+03   -0.13719E-03   -0.13408E-03   302   0.178E-02    0.122E-01
RMM:  50     0.695838992174E+03   -0.13804E-03   -0.13502E-03   284   0.168E-02    0.128E-01
RMM:  51     0.695838854253E+03   -0.13792E-03   -0.13496E-03   283   0.165E-02    0.134E-01
RMM:  52     0.695838720994E+03   -0.13326E-03   -0.13233E-03   337   0.167E-02    0.140E-01
RMM:  53     0.695838589801E+03   -0.13119E-03   -0.13225E-03   319   0.167E-02    0.145E-01
RMM:  54     0.695838461022E+03   -0.12878E-03   -0.13267E-03   362   0.181E-02    0.151E-01
RMM:  55     0.695838332310E+03   -0.12871E-03   -0.13204E-03   406   0.217E-02    0.156E-01
RMM:  56     0.695838193608E+03   -0.13870E-03   -0.13736E-03   424   0.221E-02    0.161E-01
RMM:  57     0.695838062673E+03   -0.13093E-03   -0.13419E-03   393   0.202E-02    0.167E-01
RMM:  58     0.695837922070E+03   -0.14060E-03   -0.13652E-03   383   0.205E-02    0.173E-01
RMM:  59     0.695837791127E+03   -0.13094E-03   -0.12866E-03   356   0.197E-02    0.179E-01
RMM:  60     0.695837652893E+03   -0.13823E-03   -0.13481E-03   356   0.205E-02
   8 F= 0.69583765E+03 E0= 0.69585701E+03  d E =-.143511E+00
       N       E                     dE             d eps       ncg     rms          rms(c)
RMM:   1     0.691083010783E+03   -0.47548E+01   -0.29801E+02   671   0.281E+01    0.385E+00
RMM:   2     0.695424235809E+03    0.43412E+01    0.30942E+01   773   0.936E+00    0.386E+00
RMM:   3     0.695825934305E+03    0.40170E+00   -0.30900E+00   932   0.291E+00    0.184E+00
RMM:   4     0.695701696510E+03   -0.12424E+00   -0.18156E+00  1032   0.154E+00    0.156E+00
RMM:   5     0.695702262960E+03    0.56645E-03   -0.71152E-01  1024   0.959E-01    0.891E-01
RMM:   6     0.695660345945E+03   -0.41917E-01   -0.58176E-01  1032   0.752E-01    0.109E+00
RMM:   7     0.695682810106E+03    0.22464E-01   -0.17761E-01  1020   0.517E-01    0.622E-01
RMM:   8     0.695680612009E+03   -0.21981E-02   -0.11898E-01  1034   0.343E-01    0.344E-01
RMM:   9     0.695677653238E+03   -0.29588E-02   -0.64558E-02  1028   0.230E-01    0.218E-01
RMM:  10     0.695674467173E+03   -0.31861E-02   -0.42042E-02  1032   0.158E-01    0.303E-01
RMM:  11     0.695674712738E+03    0.24556E-03   -0.16431E-02  1015   0.115E-01    0.253E-01
RMM:  12     0.695674334173E+03   -0.37856E-03   -0.10981E-02   989   0.813E-02    0.227E-01
RMM:  13     0.695674224807E+03   -0.10937E-03   -0.73623E-03   995   0.702E-02    0.176E-01
RMM:  14     0.695674070910E+03   -0.15390E-03   -0.76251E-03   927   0.639E-02    0.993E-02
RMM:  15     0.695673582473E+03   -0.48844E-03   -0.77300E-03   902   0.556E-02    0.702E-02
RMM:  16     0.695673080566E+03   -0.50191E-03   -0.53669E-03   517   0.364E-02    0.973E-02
RMM:  17     0.695672796338E+03   -0.28423E-03   -0.38572E-03   482   0.340E-02    0.100E-01
RMM:  18     0.695672551688E+03   -0.24465E-03   -0.37335E-03   591   0.387E-02    0.851E-02
RMM:  19     0.695672334929E+03   -0.21676E-03   -0.32861E-03   614   0.381E-02    0.544E-02
RMM:  20     0.695672060196E+03   -0.27473E-03   -0.31058E-03   498   0.296E-02    0.275E-02
RMM:  21     0.695671711309E+03   -0.34889E-03   -0.35370E-03   580   0.331E-02    0.189E-02
RMM:  22     0.695671393368E+03   -0.31794E-03   -0.30165E-03   484   0.293E-02    0.398E-02
RMM:  23     0.695671135003E+03   -0.25836E-03   -0.27195E-03   462   0.261E-02    0.438E-02
RMM:  24     0.695670882737E+03   -0.25227E-03   -0.25608E-03   422   0.238E-02    0.497E-02
RMM:  25     0.695670613712E+03   -0.26903E-03   -0.25823E-03   459   0.267E-02    0.609E-02
RMM:  26     0.695670368092E+03   -0.24562E-03   -0.25081E-03   414   0.241E-02    0.665E-02
RMM:  27     0.695670123457E+03   -0.24464E-03   -0.24131E-03   372   0.201E-02    0.727E-02
RMM:  28     0.695669887876E+03   -0.23558E-03   -0.23295E-03   348   0.191E-02    0.787E-02
RMM:  29     0.695669652988E+03   -0.23489E-03   -0.23002E-03   308   0.182E-02    0.850E-02
RMM:  30     0.695669426379E+03   -0.22661E-03   -0.22586E-03   317   0.191E-02    0.903E-02
RMM:  31     0.695669194672E+03   -0.23171E-03   -0.22461E-03   326   0.193E-02    0.970E-02
RMM:  32     0.695668966648E+03   -0.22802E-03   -0.22002E-03   302   0.184E-02    0.104E-01
RMM:  33     0.695668745438E+03   -0.22121E-03   -0.22027E-03   325   0.188E-02    0.109E-01
RMM:  34     0.695668522216E+03   -0.22322E-03   -0.21715E-03   285   0.171E-02    0.116E-01
RMM:  35     0.695668313636E+03   -0.20858E-03   -0.20499E-03   279   0.156E-02    0.121E-01
RMM:  36     0.695668099857E+03   -0.21378E-03   -0.20807E-03   258   0.167E-02    0.127E-01
RMM:  37     0.695667887634E+03   -0.21222E-03   -0.20592E-03   267   0.173E-02    0.133E-01
RMM:  38     0.695667677376E+03   -0.21026E-03   -0.20543E-03   280   0.177E-02    0.139E-01
RMM:  39     0.695667471204E+03   -0.20617E-03   -0.20502E-03   271   0.167E-02    0.145E-01
RMM:  40     0.695667266773E+03   -0.20443E-03   -0.20229E-03   268   0.161E-02    0.151E-01
RMM:  41     0.695667048012E+03   -0.21876E-03   -0.20208E-03   272   0.171E-02    0.158E-01
RMM:  42     0.695666819471E+03   -0.22854E-03   -0.20343E-03   278   0.164E-02    0.167E-01
RMM:  43     0.695666611840E+03   -0.20763E-03   -0.19979E-03   268   0.167E-02    0.174E-01
RMM:  44     0.695666413295E+03   -0.19854E-03   -0.20059E-03   275   0.175E-02    0.181E-01
RMM:  45     0.695666213284E+03   -0.20001E-03   -0.19501E-03   272   0.172E-02    0.188E-01
RMM:  46     0.695666006799E+03   -0.20648E-03   -0.19580E-03   278   0.174E-02    0.196E-01
RMM:  47     0.695665826931E+03   -0.17987E-03   -0.19560E-03   271   0.175E-02    0.201E-01
RMM:  48     0.695665638273E+03   -0.18866E-03   -0.19693E-03   288   0.178E-02    0.208E-01
RMM:  49     0.695665453666E+03   -0.18461E-03   -0.19389E-03   285   0.172E-02    0.213E-01
RMM:  50     0.695665256854E+03   -0.19681E-03   -0.19399E-03   283   0.173E-02    0.220E-01
RMM:  51     0.695665068028E+03   -0.18883E-03   -0.19063E-03   290   0.172E-02    0.226E-01
RMM:  52     0.695664871400E+03   -0.19663E-03   -0.19204E-03   286   0.175E-02    0.233E-01
RMM:  53     0.695664678630E+03   -0.19277E-03   -0.18921E-03   286   0.175E-02    0.240E-01
RMM:  54     0.695664484481E+03   -0.19415E-03   -0.19069E-03   269   0.163E-02    0.247E-01
RMM:  55     0.695664301409E+03   -0.18307E-03   -0.19024E-03   275   0.161E-02    0.253E-01
RMM:  56     0.695664107496E+03   -0.19391E-03   -0.18954E-03   264   0.164E-02    0.260E-01
RMM:  57     0.695663966189E+03   -0.14131E-03   -0.19201E-03   354   0.176E-02    0.263E-01
RMM:  58     0.695663765449E+03   -0.20074E-03   -0.18726E-03   308   0.173E-02    0.270E-01
RMM:  59     0.695663566042E+03   -0.19941E-03   -0.19226E-03   328   0.198E-02    0.277E-01
RMM:  60     0.695663381285E+03   -0.18476E-03   -0.18625E-03   321   0.188E-02
   9 F= 0.69566338E+03 E0= 0.69569064E+03  d E =-.317783E+00
       N       E                     dE             d eps       ncg     rms          rms(c)
RMM:   1     0.694834318964E+03   -0.82925E+00   -0.46677E+01   664   0.110E+01    0.157E+00
RMM:   2     0.695586748142E+03    0.75243E+00    0.57144E+00   812   0.380E+00    0.121E+00
RMM:   3     0.695595508926E+03    0.87608E-02   -0.50847E-01  1003   0.102E+00    0.714E-01
RMM:   4     0.695586886409E+03   -0.86225E-02   -0.20496E-01  1030   0.531E-01    0.528E-01
RMM:   5     0.695583191089E+03   -0.36953E-02   -0.10443E-01  1028   0.360E-01    0.414E-01
RMM:   6     0.695582928290E+03   -0.26280E-03   -0.65028E-02  1031   0.283E-01    0.337E-01
RMM:   7     0.695584689112E+03    0.17608E-02   -0.27871E-02  1028   0.189E-01    0.128E-01
RMM:   8     0.695583690927E+03   -0.99819E-03   -0.14756E-02  1022   0.117E-01    0.855E-02
RMM:   9     0.695583250015E+03   -0.44091E-03   -0.70019E-03   989   0.770E-02    0.653E-02
RMM:  10     0.695582944072E+03   -0.30594E-03   -0.42385E-03   818   0.538E-02    0.548E-02
RMM:  11     0.695582703542E+03   -0.24053E-03   -0.29800E-03   690   0.412E-02    0.416E-02
RMM:  12     0.695582453165E+03   -0.25038E-03   -0.27692E-03   613   0.375E-02    0.263E-02
RMM:  13     0.695582191938E+03   -0.26123E-03   -0.28141E-03   607   0.362E-02    0.247E-02
RMM:  14     0.695581983095E+03   -0.20884E-03   -0.21423E-03   469   0.283E-02    0.238E-02
RMM:  15     0.695581778057E+03   -0.20504E-03   -0.21430E-03   494   0.312E-02    0.182E-02
RMM:  16     0.695581584041E+03   -0.19402E-03   -0.19465E-03   512   0.335E-02    0.130E-02
RMM:  17     0.695581378509E+03   -0.20553E-03   -0.20249E-03   490   0.257E-02    0.792E-03
RMM:  18     0.695581180123E+03   -0.19839E-03   -0.19348E-03   425   0.217E-02    0.574E-03
RMM:  19     0.695580981805E+03   -0.19832E-03   -0.19317E-03   419   0.218E-02    0.606E-03
RMM:  20     0.695580786572E+03   -0.19523E-03   -0.19053E-03   425   0.233E-02    0.759E-03
RMM:  21     0.695580594187E+03   -0.19239E-03   -0.18811E-03   456   0.261E-02    0.107E-02
RMM:  22     0.695580400650E+03   -0.19354E-03   -0.18854E-03   406   0.228E-02    0.137E-02
RMM:  23     0.695580209527E+03   -0.19112E-03   -0.18687E-03   372   0.203E-02    0.173E-02
RMM:  24     0.695580019175E+03   -0.19035E-03   -0.18545E-03   347   0.188E-02    0.216E-02
RMM:  25     0.695579830080E+03   -0.18910E-03   -0.18521E-03   336   0.191E-02    0.259E-02
RMM:  26     0.695579642264E+03   -0.18782E-03   -0.18358E-03   330   0.186E-02    0.303E-02
RMM:  27     0.695579456998E+03   -0.18527E-03   -0.18122E-03   315   0.187E-02    0.350E-02
RMM:  28     0.695579271821E+03   -0.18518E-03   -0.18073E-03   303   0.191E-02    0.397E-02
RMM:  29     0.695579087068E+03   -0.18475E-03   -0.18087E-03   306   0.187E-02    0.445E-02
RMM:  30     0.695578904798E+03   -0.18227E-03   -0.17820E-03   289   0.180E-02    0.495E-02
RMM:  31     0.695578718501E+03   -0.18630E-03   -0.18256E-03   307   0.187E-02    0.547E-02
RMM:  32     0.695578535264E+03   -0.18324E-03   -0.17940E-03   273   0.157E-02    0.600E-02
RMM:  33     0.695578354183E+03   -0.18108E-03   -0.17716E-03   262   0.158E-02    0.656E-02
RMM:  34     0.695578172165E+03   -0.18202E-03   -0.17799E-03   277   0.168E-02    0.715E-02
RMM:  35     0.695577992958E+03   -0.17921E-03   -0.17568E-03   268   0.161E-02    0.775E-02
RMM:  36     0.695577816254E+03   -0.17670E-03   -0.17293E-03   282   0.175E-02    0.836E-02
RMM:  37     0.695577635903E+03   -0.18035E-03   -0.17657E-03   282   0.171E-02    0.896E-02
RMM:  38     0.695577454204E+03   -0.18170E-03   -0.17811E-03   279   0.168E-02    0.955E-02
RMM:  39     0.695577273051E+03   -0.18115E-03   -0.17747E-03   269   0.161E-02    0.102E-01
RMM:  40     0.695577098356E+03   -0.17470E-03   -0.17177E-03   272   0.163E-02    0.108E-01
RMM:  41     0.695576918501E+03   -0.17985E-03   -0.17621E-03   280   0.171E-02    0.114E-01
RMM:  42     0.695576743055E+03   -0.17545E-03   -0.17175E-03   268   0.166E-02    0.121E-01
RMM:  43     0.695576564632E+03   -0.17842E-03   -0.17502E-03   281   0.176E-02    0.127E-01
RMM:  44     0.695576384993E+03   -0.17964E-03   -0.17638E-03   275   0.168E-02    0.134E-01
RMM:  45     0.695576209373E+03   -0.17562E-03   -0.17229E-03   261   0.164E-02    0.141E-01
RMM:  46     0.695576031918E+03   -0.17746E-03   -0.17415E-03   273   0.166E-02    0.148E-01
RMM:  47     0.695575858904E+03   -0.17301E-03   -0.17478E-03   304   0.178E-02    0.154E-01
RMM:  48     0.695575680125E+03   -0.17878E-03   -0.17424E-03   293   0.174E-02    0.161E-01
RMM:  49     0.695575503791E+03   -0.17633E-03   -0.17339E-03   296   0.172E-02    0.168E-01
RMM:  50     0.695575327424E+03   -0.17637E-03   -0.17230E-03   315   0.176E-02    0.175E-01
RMM:  51     0.695575147168E+03   -0.18026E-03   -0.17489E-03   354   0.184E-02    0.183E-01
RMM:  52     0.695574966377E+03   -0.18079E-03   -0.17284E-03   383   0.204E-02    0.191E-01
RMM:  53     0.695574788040E+03   -0.17834E-03   -0.17481E-03   389   0.225E-02    0.199E-01
RMM:  54     0.695574612251E+03   -0.17579E-03   -0.17165E-03   374   0.219E-02    0.207E-01
RMM:  55     0.695574436996E+03   -0.17525E-03   -0.17304E-03   398   0.231E-02    0.215E-01
RMM:  56     0.695574260729E+03   -0.17627E-03   -0.17145E-03   342   0.202E-02    0.223E-01
RMM:  57     0.695574074967E+03   -0.18576E-03   -0.17516E-03   345   0.203E-02    0.232E-01
RMM:  58     0.695573897498E+03   -0.17747E-03   -0.17399E-03   300   0.176E-02    0.240E-01
RMM:  59     0.695573719448E+03   -0.17805E-03   -0.17376E-03   280   0.171E-02    0.249E-01
RMM:  60     0.695573542351E+03   -0.17710E-03   -0.17388E-03   307   0.181E-02
  10 F= 0.69557354E+03 E0= 0.69560182E+03  d E =-.898389E-01
       N       E                     dE             d eps       ncg     rms          rms(c)
RMM:   1     0.695494049633E+03   -0.79670E-01   -0.44159E+00   670   0.340E+00    0.527E-01
RMM:   2     0.695557696833E+03    0.63647E-01    0.45893E-01   819   0.122E+00    0.503E-01
RMM:   3     0.695562397498E+03    0.47007E-02   -0.59833E-02   992   0.338E-01    0.226E-01
RMM:   4     0.695561429153E+03   -0.96834E-03   -0.25263E-02  1032   0.184E-01    0.156E-01
RMM:   5     0.695561147676E+03   -0.28148E-03   -0.11735E-02  1031   0.118E-01    0.105E-01
RMM:   6     0.695560847649E+03   -0.30003E-03   -0.75972E-03  1022   0.890E-02    0.102E-01
RMM:   7     0.695560844705E+03   -0.29440E-05   -0.37723E-03   950   0.576E-02    0.621E-02
RMM:   8     0.695560665528E+03   -0.17918E-03   -0.26752E-03   744   0.404E-02    0.414E-02
RMM:   9     0.695560480855E+03   -0.18467E-03   -0.24055E-03   576   0.356E-02    0.217E-02
RMM:  10     0.695560275836E+03   -0.20502E-03   -0.22131E-03   523   0.347E-02    0.253E-02
RMM:  11     0.695560107702E+03   -0.16813E-03   -0.17848E-03   458   0.294E-02    0.278E-02
RMM:  12     0.695559956376E+03   -0.15133E-03   -0.15779E-03   487   0.318E-02    0.294E-02
RMM:  13     0.695559803552E+03   -0.15282E-03   -0.15650E-03   449   0.266E-02    0.316E-02
RMM:  14     0.695559647182E+03   -0.15637E-03   -0.15799E-03   457   0.249E-02    0.338E-02
RMM:  15     0.695559479488E+03   -0.16769E-03   -0.15622E-03   424   0.221E-02    0.407E-02
RMM:  16     0.695559350339E+03   -0.12915E-03   -0.16206E-03   448   0.244E-02    0.298E-02
RMM:  17     0.695559204616E+03   -0.14572E-03   -0.16404E-03   486   0.261E-02    0.150E-02
RMM:  18     0.695559040913E+03   -0.16370E-03   -0.16356E-03   460   0.272E-02    0.809E-03
RMM:  19     0.695558886755E+03   -0.15416E-03   -0.15081E-03   404   0.224E-02    0.725E-03
RMM:  20     0.695558731422E+03   -0.15533E-03   -0.15216E-03   446   0.226E-02    0.679E-03
RMM:  21     0.695558584151E+03   -0.14727E-03   -0.14415E-03   358   0.185E-02    0.707E-03
RMM:  22     0.695558434907E+03   -0.14924E-03   -0.14582E-03   355   0.199E-02    0.898E-03
RMM:  23     0.695558284311E+03   -0.15060E-03   -0.14730E-03   362   0.209E-02    0.109E-02
RMM:  24     0.695558134372E+03   -0.14994E-03   -0.14653E-03   340   0.190E-02    0.135E-02
RMM:  25     0.695557985325E+03   -0.14905E-03   -0.14595E-03   324   0.189E-02    0.157E-02
RMM:  26     0.695557837615E+03   -0.14771E-03   -0.14460E-03   289   0.156E-02    0.179E-02
RMM:  27     0.695557692430E+03   -0.14518E-03   -0.14238E-03   277   0.157E-02    0.196E-02
RMM:  28     0.695557547404E+03   -0.14503E-03   -0.14192E-03   291   0.167E-02    0.214E-02
RMM:  29     0.695557403346E+03   -0.14406E-03   -0.14100E-03   289   0.171E-02    0.231E-02
RMM:  30     0.695557258291E+03   -0.14506E-03   -0.14181E-03   289   0.167E-02    0.251E-02
RMM:  31     0.695557120168E+03   -0.13812E-03   -0.13489E-03   272   0.159E-02    0.269E-02
RMM:  32     0.695556977169E+03   -0.14300E-03   -0.14011E-03   280   0.161E-02    0.287E-02
RMM:  33     0.695556836844E+03   -0.14033E-03   -0.13731E-03   260   0.157E-02    0.306E-02
RMM:  34     0.695556693719E+03   -0.14312E-03   -0.14018E-03   284   0.166E-02    0.324E-02
RMM:  35     0.695556551828E+03   -0.14189E-03   -0.13895E-03   276   0.155E-02    0.342E-02
RMM:  36     0.695556411657E+03   -0.14017E-03   -0.13718E-03   269   0.150E-02    0.360E-02
RMM:  37     0.695556277594E+03   -0.13406E-03   -0.13111E-03   259   0.155E-02    0.380E-02
RMM:  38     0.695556141950E+03   -0.13564E-03   -0.13270E-03   279   0.166E-02    0.399E-02
RMM:  39     0.695556007276E+03   -0.13467E-03   -0.13187E-03   277   0.169E-02    0.415E-02
RMM:  40     0.695555869877E+03   -0.13740E-03   -0.13446E-03   274   0.161E-02    0.432E-02
RMM:  41     0.695555734208E+03   -0.13567E-03   -0.13279E-03   261   0.151E-02    0.452E-02
RMM:  42     0.695555599281E+03   -0.13493E-03   -0.13227E-03   260   0.149E-02    0.471E-02
RMM:  43     0.695555465253E+03   -0.13403E-03   -0.13154E-03   270   0.158E-02    0.492E-02
RMM:  44     0.695555331037E+03   -0.13422E-03   -0.13143E-03   280   0.157E-02    0.512E-02
RMM:  45     0.695555198154E+03   -0.13288E-03   -0.13039E-03   269   0.158E-02    0.531E-02
RMM:  46     0.695555063458E+03   -0.13470E-03   -0.13207E-03   268   0.165E-02    0.551E-02
RMM:  47     0.695554931106E+03   -0.13235E-03   -0.13187E-03   280   0.164E-02    0.568E-02
RMM:  48     0.695554801056E+03   -0.13005E-03   -0.12819E-03   288   0.164E-02    0.586E-02
RMM:  49     0.695554669467E+03   -0.13159E-03   -0.12958E-03   303   0.176E-02    0.606E-02
RMM:  50     0.695554539765E+03   -0.12970E-03   -0.12790E-03   328   0.178E-02    0.623E-02
RMM:  51     0.695554409081E+03   -0.13068E-03   -0.12884E-03   366   0.194E-02    0.639E-02
RMM:  52     0.695554276680E+03   -0.13240E-03   -0.12897E-03   366   0.192E-02    0.660E-02
RMM:  53     0.695554145266E+03   -0.13141E-03   -0.12830E-03   367   0.202E-02    0.685E-02
RMM:  54     0.695554014741E+03   -0.13053E-03   -0.12784E-03   374   0.213E-02    0.709E-02
RMM:  55     0.695553882596E+03   -0.13214E-03   -0.12934E-03   382   0.216E-02    0.735E-02
RMM:  56     0.695553750305E+03   -0.13229E-03   -0.12991E-03   362   0.206E-02    0.760E-02
RMM:  57     0.695553620024E+03   -0.13028E-03   -0.12458E-03   343   0.184E-02    0.794E-02
RMM:  58     0.695553488543E+03   -0.13148E-03   -0.12880E-03   341   0.180E-02    0.825E-02
RMM:  59     0.695553359754E+03   -0.12879E-03   -0.12632E-03   293   0.173E-02    0.859E-02
RMM:  60     0.695553233780E+03   -0.12597E-03   -0.12310E-03   311   0.188E-02
  11 F= 0.69555323E+03 E0= 0.69558162E+03  d E =-.110148E+00
       N       E                     dE             d eps       ncg     rms          rms(c)
RMM:   1     0.695297283829E+03   -0.25608E+00   -0.17473E+01   669   0.680E+00    0.920E-01
RMM:   2     0.695558725253E+03    0.26144E+00    0.20016E+00   808   0.226E+00    0.600E-01
RMM:   3     0.695551663215E+03   -0.70620E-02   -0.18555E-01  1011   0.591E-01    0.416E-01
RMM:   4     0.695548979397E+03   -0.26838E-02   -0.77368E-02  1027   0.321E-01    0.280E-01
RMM:   5     0.695546723124E+03   -0.22563E-02   -0.43244E-02  1028   0.231E-01    0.257E-01
RMM:   6     0.695547765302E+03    0.10422E-02   -0.18640E-02  1030   0.157E-01    0.132E-01
RMM:   7     0.695547386353E+03   -0.37895E-03   -0.10225E-02  1016   0.103E-01    0.674E-02
RMM:   8     0.695547032610E+03   -0.35374E-03   -0.48884E-03   928   0.663E-02    0.507E-02
RMM:   9     0.695546830757E+03   -0.20185E-03   -0.28713E-03   747   0.466E-02    0.398E-02
RMM:  10     0.695546652861E+03   -0.17790E-03   -0.21142E-03   667   0.377E-02    0.356E-02
RMM:  11     0.695546512183E+03   -0.14068E-03   -0.17108E-03   495   0.319E-02    0.269E-02
RMM:  12     0.695546355134E+03   -0.15705E-03   -0.17375E-03   534   0.329E-02    0.168E-02
RMM:  13     0.695546191186E+03   -0.16395E-03   -0.17082E-03   540   0.339E-02    0.150E-02
RMM:  14     0.695546044981E+03   -0.14621E-03   -0.14674E-03   474   0.299E-02    0.157E-02
RMM:  15     0.695545922121E+03   -0.12286E-03   -0.12501E-03   485   0.302E-02    0.155E-02
RMM:  16     0.695545789652E+03   -0.13247E-03   -0.13075E-03   422   0.232E-02    0.168E-02
RMM:  17     0.695545652673E+03   -0.13698E-03   -0.13435E-03   454   0.230E-02    0.190E-02
RMM:  18     0.695545520924E+03   -0.13175E-03   -0.12909E-03   421   0.219E-02    0.216E-02
RMM:  19     0.695545386186E+03   -0.13474E-03   -0.13215E-03   407   0.220E-02    0.239E-02
RMM:  20     0.695545257102E+03   -0.12908E-03   -0.12624E-03   393   0.212E-02    0.269E-02
RMM:  21     0.695545126278E+03   -0.13082E-03   -0.12808E-03   356   0.195E-02    0.299E-02
RMM:  22     0.695544999205E+03   -0.12707E-03   -0.12435E-03   358   0.203E-02    0.330E-02
RMM:  23     0.695544869743E+03   -0.12946E-03   -0.12668E-03   322   0.185E-02    0.365E-02
RMM:  24     0.695544742431E+03   -0.12731E-03   -0.12469E-03   305   0.181E-02    0.400E-02
RMM:  25     0.695544614489E+03   -0.12794E-03   -0.12540E-03   316   0.177E-02    0.435E-02
RMM:  26     0.695544487081E+03   -0.12741E-03   -0.12487E-03   290   0.173E-02    0.472E-02
RMM:  27     0.695544362278E+03   -0.12480E-03   -0.12240E-03   279   0.167E-02    0.509E-02
RMM:  28     0.695544239509E+03   -0.12277E-03   -0.12059E-03   300   0.181E-02    0.547E-02
RMM:  29     0.695544112568E+03   -0.12694E-03   -0.12460E-03   287   0.178E-02    0.586E-02
RMM:  30     0.695543988237E+03   -0.12433E-03   -0.12210E-03   271   0.167E-02    0.625E-02
RMM:  31     0.695543862921E+03   -0.12532E-03   -0.12269E-03   282   0.166E-02    0.665E-02
RMM:  32     0.695543737885E+03   -0.12504E-03   -0.12260E-03   284   0.167E-02    0.704E-02
RMM:  33     0.695543614905E+03   -0.12298E-03   -0.12047E-03   286   0.166E-02    0.744E-02
RMM:  34     0.695543492563E+03   -0.12234E-03   -0.12009E-03   258   0.158E-02    0.785E-02
RMM:  35     0.695543371179E+03   -0.12138E-03   -0.11916E-03   268   0.166E-02    0.826E-02
RMM:  36     0.695543250368E+03   -0.12081E-03   -0.11850E-03   282   0.171E-02    0.868E-02
RMM:  37     0.695543127084E+03   -0.12328E-03   -0.12150E-03   285   0.171E-02    0.909E-02
RMM:  38     0.695543004939E+03   -0.12214E-03   -0.11991E-03   286   0.167E-02    0.953E-02
RMM:  39     0.695542884065E+03   -0.12087E-03   -0.11905E-03   275   0.163E-02    0.996E-02
RMM:  40     0.695542764839E+03   -0.11923E-03   -0.11727E-03   264   0.158E-02    0.104E-01
RMM:  41     0.695542644645E+03   -0.12019E-03   -0.11787E-03   270   0.161E-02    0.108E-01
RMM:  42     0.695542526648E+03   -0.11800E-03   -0.11592E-03   265   0.170E-02    0.112E-01
RMM:  43     0.695542405073E+03   -0.12157E-03   -0.11923E-03   291   0.172E-02    0.117E-01
RMM:  44     0.695542286173E+03   -0.11890E-03   -0.11687E-03   274   0.161E-02    0.122E-01
RMM:  45     0.695542166455E+03   -0.11972E-03   -0.11793E-03   279   0.167E-02    0.126E-01
RMM:  46     0.695542048727E+03   -0.11773E-03   -0.11585E-03   276   0.168E-02    0.131E-01
RMM:  47     0.695541920404E+03   -0.12832E-03   -0.12036E-03   303   0.174E-02    0.136E-01
RMM:  48     0.695541794210E+03   -0.12619E-03   -0.11870E-03   318   0.166E-02    0.141E-01
RMM:  49     0.695541667673E+03   -0.12654E-03   -0.11278E-03   366   0.182E-02    0.147E-01
RMM:  50     0.695541525317E+03   -0.14236E-03   -0.11725E-03   379   0.198E-02    0.154E-01
RMM:  51     0.695541384297E+03   -0.14102E-03   -0.12373E-03   426   0.233E-02    0.162E-01
RMM:  52     0.695541241975E+03   -0.14232E-03   -0.12344E-03   437   0.234E-02    0.170E-01
RMM:  53     0.695541099369E+03   -0.14261E-03   -0.12490E-03   428   0.235E-02    0.178E-01
RMM:  54     0.695540983242E+03   -0.11613E-03   -0.11804E-03   369   0.205E-02    0.184E-01
RMM:  55     0.695540854673E+03   -0.12857E-03   -0.11900E-03   363   0.210E-02    0.191E-01
RMM:  56     0.695540734564E+03   -0.12011E-03   -0.11763E-03   358   0.216E-02    0.199E-01
RMM:  57     0.695540703429E+03   -0.31134E-04   -0.11669E-03   413   0.219E-02    0.199E-01
RMM:  58     0.695540647957E+03   -0.55473E-04   -0.11754E-03   419   0.228E-02    0.201E-01
RMM:  59     0.695540564245E+03   -0.83712E-04   -0.11472E-03   398   0.226E-02    0.203E-01
RMM:  60     0.695540462380E+03   -0.10186E-03   -0.11159E-03   422   0.223E-02
  12 F= 0.69554046E+03 E0= 0.69556885E+03  d E =-.122919E+00
       N       E                     dE             d eps       ncg     rms          rms(c)
RMM:   1     0.694863976142E+03   -0.67659E+00   -0.38499E+01   661   0.999E+00    0.137E+00
RMM:   2     0.695499361504E+03    0.63539E+00    0.46925E+00   799   0.346E+00    0.976E-01
RMM:   3     0.695492515088E+03   -0.68464E-02   -0.40889E-01  1018   0.883E-01    0.681E-01
RMM:   4     0.695490670919E+03   -0.18442E-02   -0.14965E-01  1031   0.447E-01    0.451E-01
RMM:   5     0.695487956076E+03   -0.27148E-02   -0.84273E-02  1030   0.329E-01    0.372E-01
RMM:   6     0.695489083952E+03    0.11279E-02   -0.40274E-02  1030   0.244E-01    0.225E-01
RMM:   7     0.695489452088E+03    0.36814E-03   -0.18362E-02  1034   0.156E-01    0.981E-02
RMM:   8     0.695488872167E+03   -0.57992E-03   -0.91878E-03  1023   0.999E-02    0.821E-02
RMM:   9     0.695488725490E+03   -0.14668E-03   -0.43547E-03   984   0.669E-02    0.584E-02
RMM:  10     0.695488521375E+03   -0.20412E-03   -0.28192E-03   767   0.456E-02    0.479E-02
RMM:  11     0.695488382455E+03   -0.13892E-03   -0.21264E-03   686   0.382E-02    0.313E-02
RMM:  12     0.695488231297E+03   -0.15116E-03   -0.19552E-03   575   0.375E-02    0.270E-02
RMM:  13     0.695488089738E+03   -0.14156E-03   -0.15746E-03   516   0.311E-02    0.253E-02
RMM:  14     0.695487960620E+03   -0.12912E-03   -0.14270E-03   497   0.279E-02    0.202E-02
RMM:  15     0.695487840765E+03   -0.11985E-03   -0.12548E-03   515   0.294E-02    0.128E-02
RMM:  16     0.695487718969E+03   -0.12180E-03   -0.11974E-03   476   0.258E-02    0.901E-03
RMM:  17     0.695487597449E+03   -0.12152E-03   -0.11745E-03   412   0.208E-02    0.824E-03
RMM:  18     0.695487479718E+03   -0.11773E-03   -0.11390E-03   443   0.234E-02    0.736E-03
RMM:  19     0.695487363010E+03   -0.11671E-03   -0.11343E-03   443   0.224E-02    0.673E-03
RMM:  20     0.695487248868E+03   -0.11414E-03   -0.11149E-03   438   0.227E-02    0.728E-03
RMM:  21     0.695487134332E+03   -0.11454E-03   -0.11195E-03   407   0.203E-02    0.873E-03
RMM:  22     0.695487021561E+03   -0.11277E-03   -0.10972E-03   367   0.188E-02    0.107E-02
RMM:  23     0.695486918442E+03   -0.10312E-03   -0.10038E-03   374   0.195E-02    0.129E-02
RMM:  24     0.695486807591E+03   -0.11085E-03   -0.10817E-03   334   0.185E-02    0.151E-02
RMM:  25     0.695486698977E+03   -0.10861E-03   -0.10629E-03   336   0.170E-02    0.177E-02
RMM:  26     0.695486591600E+03   -0.10738E-03   -0.10499E-03   297   0.157E-02    0.206E-02
RMM:  27     0.695486485060E+03   -0.10654E-03   -0.10420E-03   270   0.148E-02    0.234E-02
RMM:  28     0.695486379213E+03   -0.10585E-03   -0.10358E-03   264   0.145E-02    0.266E-02
RMM:  29     0.695486273971E+03   -0.10524E-03   -0.10285E-03   271   0.154E-02    0.296E-02
RMM:  30     0.695486168146E+03   -0.10582E-03   -0.10360E-03   284   0.156E-02    0.327E-02
RMM:  31     0.695486063447E+03   -0.10470E-03   -0.10249E-03   290   0.156E-02    0.356E-02
RMM:  32     0.695485963216E+03   -0.10023E-03   -0.98706E-04   367   0.162E-02    0.375E-02
RMM:  33     0.695485864593E+03   -0.98623E-04   -0.97961E-04   390   0.186E-02
  13 F= 0.69548586E+03 E0= 0.69551400E+03  d E =-.545978E-01
       N       E                     dE             d eps       ncg     rms          rms(c)
RMM:   1     0.695455496752E+03   -0.30466E-01   -0.17282E+00   668   0.213E+00    0.288E-01
RMM:   2     0.695482630048E+03    0.27133E-01    0.20374E-01   804   0.733E-01    0.205E-01
RMM:   3     0.695481672957E+03   -0.95709E-03   -0.21362E-02  1015   0.188E-01    0.155E-01
RMM:   4     0.695481880100E+03    0.20714E-03   -0.77533E-03  1026   0.102E-01    0.871E-02
RMM:   5     0.695481750821E+03   -0.12928E-03   -0.53067E-03  1010   0.749E-02    0.806E-02
RMM:   6     0.695481805263E+03    0.54442E-04   -0.28718E-03   962   0.563E-02    0.409E-02
RMM:   7     0.695481713421E+03   -0.91842E-04   -0.17671E-03   685   0.372E-02    0.190E-02
RMM:   8     0.695481592063E+03   -0.12136E-03   -0.13663E-03   492   0.306E-02    0.139E-02
RMM:   9     0.695481485533E+03   -0.10653E-03   -0.10923E-03   450   0.313E-02    0.126E-02
RMM:  10     0.695481367056E+03   -0.11848E-03   -0.11837E-03   548   0.342E-02    0.134E-02
RMM:  11     0.695481275771E+03   -0.91285E-04   -0.93752E-04   445   0.279E-02
  14 F= 0.69548128E+03 E0= 0.69550925E+03  d E =-.591866E-01
       N       E                     dE             d eps       ncg     rms          rms(c)
RMM:   1     0.695373782439E+03   -0.10758E+00   -0.69087E+00   664   0.425E+00    0.569E-01
RMM:   2     0.695484679032E+03    0.11090E+00    0.83383E-01   800   0.147E+00    0.396E-01
RMM:   3     0.695481282275E+03   -0.33968E-02   -0.78372E-02  1023   0.370E-01    0.313E-01
RMM:   4     0.695481996851E+03    0.71458E-03   -0.27681E-02  1030   0.197E-01    0.173E-01
RMM:   5     0.695481317888E+03   -0.67896E-03   -0.17865E-02  1032   0.145E-01    0.171E-01
RMM:   6     0.695481853221E+03    0.53533E-03   -0.81935E-03  1024   0.108E-01    0.793E-02
RMM:   7     0.695481700032E+03   -0.15319E-03   -0.44613E-03  1010   0.677E-02    0.450E-02
RMM:   8     0.695481541750E+03   -0.15828E-03   -0.24905E-03   773   0.456E-02    0.314E-02
RMM:   9     0.695481411692E+03   -0.13006E-03   -0.15808E-03   586   0.332E-02    0.275E-02
RMM:  10     0.695481297877E+03   -0.11382E-03   -0.12699E-03   467   0.311E-02    0.233E-02
RMM:  11     0.695481178118E+03   -0.11976E-03   -0.13427E-03   545   0.330E-02    0.159E-02
RMM:  12     0.695481075073E+03   -0.10304E-03   -0.11655E-03   483   0.292E-02    0.995E-03
RMM:  13     0.695480962182E+03   -0.11289E-03   -0.11455E-03   467   0.251E-02    0.742E-03
RMM:  14     0.695480875565E+03   -0.86617E-04   -0.84660E-04   461   0.276E-02
  15 F= 0.69548088E+03 E0= 0.69550849E+03  d E =-.595868E-01
       N       E                     dE             d eps       ncg     rms          rms(c)
RMM:   1     0.695433077174E+03   -0.47885E-01   -0.30405E+00   668   0.283E+00    0.378E-01
RMM:   2     0.695478804219E+03    0.45727E-01    0.34596E-01   802   0.963E-01    0.287E-01
RMM:   3     0.695477733483E+03   -0.10707E-02   -0.35423E-02  1010   0.248E-01    0.209E-01
RMM:   4     0.695478285170E+03    0.55169E-03   -0.11941E-02  1019   0.135E-01    0.114E-01
RMM:   5     0.695478083948E+03   -0.20122E-03   -0.79810E-03  1023   0.960E-02    0.114E-01
RMM:   6     0.695478334073E+03    0.25012E-03   -0.38311E-03  1012   0.726E-02    0.532E-02
RMM:   7     0.695478253594E+03   -0.80479E-04   -0.21470E-03   823   0.449E-02    0.267E-02
RMM:   8     0.695478156691E+03   -0.96903E-04   -0.12554E-03   564   0.328E-02    0.184E-02
RMM:   9     0.695478067549E+03   -0.89142E-04   -0.10135E-03   476   0.313E-02    0.141E-02
RMM:  10     0.695477970481E+03   -0.97068E-04   -0.10129E-03   489   0.307E-02    0.130E-02
RMM:  11     0.695477890183E+03   -0.80298E-04   -0.87204E-04   448   0.257E-02
  16 F= 0.69547789E+03 E0= 0.69550575E+03  d E =-.625722E-01
       N       E                     dE             d eps       ncg     rms          rms(c)
RMM:   1     0.695315875266E+03   -0.16210E+00   -0.89918E+00   670   0.483E+00    0.679E-01
RMM:   2     0.695460677086E+03    0.14480E+00    0.10880E+00   809   0.166E+00    0.455E-01
RMM:   3     0.695458425312E+03   -0.22518E-02   -0.91967E-02  1019   0.412E-01    0.303E-01
RMM:   4     0.695457745614E+03   -0.67970E-03   -0.31766E-02  1027   0.219E-01    0.208E-01
RMM:   5     0.695456900840E+03   -0.84477E-03   -0.20995E-02  1029   0.164E-01    0.209E-01
RMM:   6     0.695457781506E+03    0.88067E-03   -0.95008E-03  1026   0.119E-01    0.938E-02
RMM:   7     0.695457632322E+03   -0.14918E-03   -0.54934E-03  1010   0.750E-02    0.542E-02
RMM:   8     0.695457497981E+03   -0.13434E-03   -0.26946E-03   869   0.501E-02    0.425E-02
RMM:   9     0.695457411454E+03   -0.86527E-04   -0.15007E-03   650   0.344E-02    0.348E-02
RMM:  10     0.695457326102E+03   -0.85352E-04   -0.10761E-03   517   0.320E-02    0.304E-02
RMM:  11     0.695457239831E+03   -0.86271E-04   -0.10988E-03   471   0.299E-02    0.199E-02
RMM:  12     0.695457158472E+03   -0.81360E-04   -0.98710E-04   484   0.303E-02
  17 F= 0.69545716E+03 E0= 0.69548652E+03  d E =-.207317E-01
       N       E                     dE             d eps       ncg     rms          rms(c)
RMM:   1     0.695430619156E+03   -0.26621E-01   -0.14464E+00   676   0.193E+00    0.269E-01
RMM:   2     0.695454109356E+03    0.23490E-01    0.18039E-01   808   0.679E-01    0.180E-01
RMM:   3     0.695453387449E+03   -0.72191E-03   -0.16523E-02  1023   0.170E-01    0.124E-01
RMM:   4     0.695453256446E+03   -0.13100E-03   -0.66584E-03  1006   0.929E-02    0.856E-02
RMM:   5     0.695453124370E+03   -0.13208E-03   -0.44641E-03   998   0.718E-02    0.861E-02
RMM:   6     0.695453232877E+03    0.10851E-03   -0.23961E-03   917   0.519E-02    0.387E-02
RMM:   7     0.695453138574E+03   -0.94303E-04   -0.16265E-03   662   0.357E-02    0.205E-02
RMM:   8     0.695453036009E+03   -0.10256E-03   -0.12009E-03   521   0.315E-02    0.155E-02
RMM:   9     0.695452951349E+03   -0.84660E-04   -0.89846E-04   462   0.300E-02
  18 F= 0.69545295E+03 E0= 0.69548286E+03  d E =-.249388E-01
       N       E                     dE             d eps       ncg     rms          rms(c)
RMM:   1     0.695348067253E+03   -0.10497E+00   -0.59075E+00   668   0.386E+00    0.557E-01
RMM:   2     0.695455085055E+03    0.10702E+00    0.82724E-01   805   0.143E+00    0.381E-01
RMM:   3     0.695453591189E+03   -0.14939E-02   -0.64106E-02  1025   0.342E-01    0.252E-01
RMM:   4     0.695453173965E+03   -0.41722E-03   -0.22486E-02  1024   0.178E-01    0.173E-01
RMM:   5     0.695452645296E+03   -0.52867E-03   -0.14537E-02  1027   0.137E-01    0.172E-01
RMM:   6     0.695453222325E+03    0.57703E-03   -0.69799E-03  1024   0.989E-02    0.776E-02
RMM:   7     0.695453063550E+03   -0.15877E-03   -0.43060E-03   987   0.633E-02    0.466E-02
RMM:   8     0.695452941802E+03   -0.12175E-03   -0.22413E-03   781   0.437E-02    0.365E-02
RMM:   9     0.695452844986E+03   -0.96816E-04   -0.13759E-03   567   0.318E-02    0.313E-02
RMM:  10     0.695452746011E+03   -0.98976E-04   -0.11334E-03   459   0.300E-02    0.271E-02
RMM:  11     0.695452647831E+03   -0.98179E-04   -0.11625E-03   543   0.336E-02    0.164E-02
RMM:  12     0.695452566116E+03   -0.81715E-04   -0.90032E-04   496   0.277E-02
  19 F= 0.69545257E+03 E0= 0.69548343E+03  d E =-.253241E-01
       N       E                     dE             d eps       ncg     rms          rms(c)
RMM:   1     0.695415676408E+03   -0.36971E-01   -0.22787E+00   673   0.244E+00    0.341E-01
RMM:   2     0.695451065548E+03    0.35389E-01    0.26743E-01   810   0.832E-01    0.231E-01
RMM:   3     0.695450287281E+03   -0.77827E-03   -0.23687E-02  1007   0.208E-01    0.161E-01
RMM:   4     0.695450307641E+03    0.20359E-04   -0.85769E-03  1010   0.110E-01    0.106E-01
RMM:   5     0.695450140699E+03   -0.16694E-03   -0.61465E-03  1015   0.841E-02    0.111E-01
RMM:   6     0.695450421501E+03    0.28080E-03   -0.28231E-03   980   0.628E-02    0.506E-02
RMM:   7     0.695450358833E+03   -0.62668E-04   -0.17464E-03   791   0.402E-02    0.250E-02
RMM:   8     0.695450283272E+03   -0.75561E-04   -0.10670E-03   516   0.303E-02    0.168E-02
RMM:   9     0.695450214726E+03   -0.68546E-04   -0.78619E-04   440   0.303E-02
  20 F= 0.69545021E+03 E0= 0.69548046E+03  d E =-.276755E-01
       N       E                     dE             d eps       ncg     rms          rms(c)
RMM:   1     0.695284202521E+03   -0.16608E+00   -0.10141E+01   669   0.516E+00    0.707E-01
RMM:   2     0.695442154584E+03    0.15795E+00    0.11879E+00   801   0.175E+00    0.497E-01
RMM:   3     0.695439126344E+03   -0.30282E-02   -0.10643E-01  1026   0.443E-01    0.346E-01
RMM:   4     0.695438996682E+03   -0.12966E-03   -0.36646E-02  1034   0.227E-01    0.234E-01
RMM:   5     0.695438068817E+03   -0.92787E-03   -0.26107E-02  1025   0.173E-01    0.236E-01
RMM:   6     0.695439180327E+03    0.11115E-02   -0.11313E-02  1030   0.133E-01    0.114E-01
RMM:   7     0.695439198826E+03    0.18499E-04   -0.58198E-03  1010   0.809E-02    0.489E-02
RMM:   8     0.695439007441E+03   -0.19138E-03   -0.29200E-03   902   0.527E-02    0.441E-02
RMM:   9     0.695438905683E+03   -0.10176E-03   -0.16330E-03   688   0.359E-02    0.414E-02
RMM:  10     0.695438816356E+03   -0.89326E-04   -0.11009E-03   529   0.307E-02    0.405E-02
RMM:  11     0.695438746405E+03   -0.69951E-04   -0.94923E-04   456   0.296E-02
  21 F= 0.69543875E+03 E0= 0.69546831E+03  d E =-.114683E-01
       N       E                     dE             d eps       ncg     rms          rms(c)
RMM:   1     0.695438059376E+03   -0.75698E-03   -0.38500E-02   715   0.316E-01    0.428E-02
RMM:   2     0.695438469503E+03    0.41013E-03    0.23693E-03   788   0.120E-01    0.521E-02
RMM:   3     0.695438432052E+03   -0.37451E-04   -0.13063E-03   681   0.430E-02    0.273E-02
RMM:   4     0.695438368648E+03   -0.63404E-04   -0.86519E-04   525   0.346E-02
  22 F= 0.69543837E+03 E0= 0.69546788E+03  d E =-.118461E-01
       N       E                     dE             d eps       ncg     rms          rms(c)
RMM:   1     0.695375065318E+03   -0.63367E-01   -0.40195E+00   673   0.327E+00    0.457E-01
RMM:   2     0.695432874549E+03    0.57809E-01    0.44527E-01   804   0.111E+00    0.381E-01
RMM:   3     0.695432986734E+03    0.11218E-03   -0.47756E-02  1004   0.306E-01    0.245E-01
RMM:   4     0.695433274992E+03    0.28826E-03   -0.19031E-02  1027   0.168E-01    0.150E-01
RMM:   5     0.695433123641E+03   -0.15135E-03   -0.11255E-02  1025   0.118E-01    0.125E-01
RMM:   6     0.695433362650E+03    0.23901E-03   -0.54855E-03  1011   0.900E-02    0.794E-02
RMM:   7     0.695433366169E+03    0.35195E-05   -0.27829E-03   924   0.550E-02    0.348E-02
RMM:   8     0.695433253119E+03   -0.11305E-03   -0.16725E-03   727   0.387E-02    0.240E-02
RMM:   9     0.695433173018E+03   -0.80101E-04   -0.10819E-03   558   0.304E-02    0.207E-02
RMM:  10     0.695433094741E+03   -0.78277E-04   -0.84522E-04   458   0.284E-02
  23 F= 0.69543309E+03 E0= 0.69546094E+03  d E =-.527391E-02
       N       E                     dE             d eps       ncg     rms          rms(c)
RMM:   1     0.695432953616E+03   -0.21940E-03   -0.71567E-03   750   0.141E-01    0.236E-02
RMM:   2     0.695432886485E+03   -0.67131E-04   -0.97810E-04   697   0.566E-02
  24 F= 0.69543289E+03 E0= 0.69546069E+03  d E =-.548216E-02
       N       E                     dE             d eps       ncg     rms          rms(c)
RMM:   1     0.695411094739E+03   -0.21859E-01   -0.14423E+00   685   0.196E+00    0.262E-01
RMM:   2     0.695431904659E+03    0.20810E-01    0.15936E-01   815   0.644E-01    0.164E-01
RMM:   3     0.695430950972E+03   -0.95369E-03   -0.16104E-02  1007   0.172E-01    0.118E-01
RMM:   4     0.695430773692E+03   -0.17728E-03   -0.69623E-03  1013   0.954E-02    0.822E-02
RMM:   5     0.695430648877E+03   -0.12481E-03   -0.46233E-03   991   0.726E-02    0.812E-02
RMM:   6     0.695430754056E+03    0.10518E-03   -0.21135E-03   887   0.518E-02    0.337E-02
RMM:   7     0.695430661446E+03   -0.92609E-04   -0.14260E-03   681   0.360E-02    0.210E-02
RMM:   8     0.695430593134E+03   -0.68312E-04   -0.93582E-04   507   0.304E-02
  25 F= 0.69543059E+03 E0= 0.69545820E+03  d E =-.229335E-02
       N       E                     dE             d eps       ncg     rms          rms(c)
RMM:   1     0.695430366536E+03   -0.29491E-03   -0.10326E-02   738   0.164E-01    0.275E-02
RMM:   2     0.695430391489E+03    0.24953E-04   -0.25883E-04   667   0.648E-02
  26 F= 0.69543039E+03 E0= 0.69545795E+03  d E =-.249500E-02
       N       E                     dE             d eps       ncg     rms          rms(c)
RMM:   1     0.695419326397E+03   -0.11040E-01   -0.66125E-01   680   0.133E+00    0.174E-01
RMM:   2     0.695429797188E+03    0.10471E-01    0.83313E-02   805   0.459E-01    0.106E-01
RMM:   3     0.695429302395E+03   -0.49479E-03   -0.77839E-03   966   0.119E-01    0.739E-02
RMM:   4     0.695429198031E+03   -0.10436E-03   -0.36727E-03   957   0.688E-02    0.476E-02
RMM:   5     0.695429129289E+03   -0.68742E-04   -0.20723E-03   812   0.515E-02    0.402E-02
RMM:   6     0.695429094784E+03   -0.34505E-04   -0.11064E-03   664   0.358E-02    0.191E-02
RMM:   7     0.695429030747E+03   -0.64038E-04   -0.77917E-04   476   0.292E-02
  27 F= 0.69542903E+03 E0= 0.69545620E+03  d E =-.136074E-02
       N       E                     dE             d eps       ncg     rms          rms(c)
RMM:   1     0.695428926469E+03   -0.16832E-03   -0.30144E-03   755   0.876E-02    0.133E-02
RMM:   2     0.695428867943E+03   -0.58526E-04   -0.68069E-04   527   0.379E-02
  28 F= 0.69542887E+03 E0= 0.69545604E+03  d E =-.152355E-02
       N       E                     dE             d eps       ncg     rms          rms(c)
RMM:   1     0.695428684960E+03   -0.24151E-03   -0.95456E-03   709   0.164E-01    0.202E-02
RMM:   2     0.695428714961E+03    0.30001E-04    0.74130E-05   573   0.666E-02
  29 F= 0.69542871E+03 E0= 0.69545585E+03  d E =-.167653E-02
       N       E                     dE             d eps       ncg     rms          rms(c)
RMM:   1     0.695428107945E+03   -0.57702E-03   -0.37793E-02   713   0.319E-01    0.425E-02
RMM:   2     0.695428545255E+03    0.43731E-03    0.32728E-03   741   0.117E-01    0.317E-02
RMM:   3     0.695428431280E+03   -0.11397E-03   -0.12917E-03   689   0.416E-02    0.226E-02
RMM:   4     0.695428393420E+03   -0.37860E-04   -0.69255E-04   521   0.331E-02
  30 F= 0.69542839E+03 E0= 0.69545542E+03  d E =-.199807E-02
       N       E                     dE             d eps       ncg     rms          rms(c)
RMM:   1     0.695418394536E+03   -0.10037E-01   -0.64361E-01   682   0.130E+00    0.175E-01
RMM:   2     0.695428035602E+03    0.96411E-02    0.75915E-02   798   0.456E-01    0.111E-01
RMM:   3     0.695427547292E+03   -0.48831E-03   -0.81698E-03   971   0.119E-01    0.774E-02
RMM:   4     0.695427521825E+03   -0.25468E-04   -0.30767E-03   930   0.678E-02    0.484E-02
RMM:   5     0.695427415488E+03   -0.10634E-03   -0.21647E-03   847   0.509E-02    0.505E-02
RMM:   6     0.695427423874E+03    0.83854E-05   -0.11292E-03   665   0.375E-02    0.248E-02
RMM:   7     0.695427376825E+03   -0.47049E-04   -0.71777E-04   486   0.302E-02
  31 F= 0.69542738E+03 E0= 0.69545428E+03  d E =-.101660E-02
       N       E                     dE             d eps       ncg     rms          rms(c)
RMM:   1     0.695427303289E+03   -0.12058E-03   -0.10241E-03   722   0.388E-02    0.119E-02
RMM:   2     0.695427246167E+03   -0.57122E-04   -0.58290E-04   442   0.265E-02
  32 F= 0.69542725E+03 E0= 0.69545414E+03  d E =-.114725E-02
       N       E                     dE             d eps       ncg     rms          rms(c)
RMM:   1     0.695427189760E+03   -0.11353E-03   -0.12176E-03   753   0.505E-02    0.771E-03
RMM:   2     0.695427141996E+03   -0.47764E-04   -0.50160E-04   399   0.243E-02
  33 F= 0.69542714E+03 E0= 0.69545401E+03  d E =-.125142E-02
       N       E                     dE             d eps       ncg     rms          rms(c)
RMM:   1     0.695427069587E+03   -0.12017E-03   -0.31003E-03   721   0.923E-02    0.111E-02
RMM:   2     0.695427039554E+03   -0.30033E-04   -0.34506E-04   529   0.399E-02
  34 F= 0.69542704E+03 E0= 0.69545391E+03  d E =-.135387E-02
       N       E                     dE             d eps       ncg     rms          rms(c)
RMM:   1     0.695421428555E+03   -0.56410E-02   -0.38076E-01   691   0.100E+00    0.138E-01
RMM:   2     0.695426717595E+03    0.52890E-02    0.41768E-02   802   0.334E-01    0.951E-02
RMM:   3     0.695426393962E+03   -0.32363E-03   -0.54480E-03   952   0.947E-02    0.710E-02
RMM:   4     0.695426415999E+03    0.22037E-04   -0.21474E-03   830   0.549E-02    0.404E-02
RMM:   5     0.695426375278E+03   -0.40720E-04   -0.14487E-03   745   0.416E-02    0.362E-02
RMM:   6     0.695426370933E+03   -0.43454E-05   -0.83657E-04   582   0.349E-02
  35 F= 0.69542637E+03 E0= 0.69545324E+03  d E =-.668621E-03
       N       E                     dE             d eps       ncg     rms          rms(c)
RMM:   1     0.695426325444E+03   -0.49834E-04   -0.63332E-04   479   0.321E-02    0.128E-02
RMM:   2     0.695426259636E+03   -0.65809E-04   -0.69036E-04   472   0.296E-02
  36 F= 0.69542626E+03 E0= 0.69545307E+03  d E =-.779918E-03
       N       E                     dE             d eps       ncg     rms          rms(c)
RMM:   1     0.695426213952E+03   -0.11149E-03   -0.58425E-04   449   0.252E-02    0.855E-03
RMM:   2     0.695426177095E+03   -0.36857E-04   -0.39947E-04   510   0.300E-02
  37 F= 0.69542618E+03 E0= 0.69545302E+03  d E =-.862458E-03
       N       E                     dE             d eps       ncg     rms          rms(c)
RMM:   1     0.695426135883E+03   -0.78069E-04   -0.41826E-04   425   0.210E-02    0.531E-03
RMM:   2     0.695426099688E+03   -0.36195E-04   -0.36588E-04   411   0.216E-02
  38 F= 0.69542610E+03 E0= 0.69545292E+03  d E =-.939866E-03
       N       E                     dE             d eps       ncg     rms          rms(c)
RMM:   1     0.695426059673E+03   -0.76211E-04   -0.39713E-04   425   0.224E-02    0.458E-03
RMM:   2     0.695426018813E+03   -0.40860E-04   -0.40797E-04   421   0.210E-02
  39 F= 0.69542602E+03 E0= 0.69545283E+03  d E =-.102074E-02
       N       E                     dE             d eps       ncg     rms          rms(c)
RMM:   1     0.695425972836E+03   -0.86837E-04   -0.45692E-04   395   0.198E-02    0.345E-03
RMM:   2     0.695425934889E+03   -0.37947E-04   -0.37488E-04   374   0.175E-02
  40 F= 0.69542593E+03 E0= 0.69545275E+03  d E =-.110466E-02
       N       E                     dE             d eps       ncg     rms          rms(c)
RMM:   1     0.695424391680E+03   -0.15812E-02   -0.10161E-01   701   0.517E-01    0.683E-02
RMM:   2     0.695425755298E+03    0.13636E-02    0.10221E-02   761   0.171E-01    0.437E-02
RMM:   3     0.695425651983E+03   -0.10332E-03   -0.15157E-03   760   0.528E-02    0.273E-02
RMM:   4     0.695425631391E+03   -0.20592E-04   -0.65605E-04   580   0.357E-02
  41 F= 0.69542563E+03 E0= 0.69545248E+03  d E =-.303498E-03
       N       E                     dE             d eps       ncg     rms          rms(c)
RMM:   1     0.695425164300E+03   -0.48768E-03   -0.24845E-02   670   0.254E-01    0.354E-02
RMM:   2     0.695425515574E+03    0.35127E-03    0.28675E-03   680   0.947E-02    0.297E-02
RMM:   3     0.695425501908E+03   -0.13666E-04   -0.46537E-04   449   0.284E-02
  42 F= 0.69542550E+03 E0= 0.69545231E+03  d E =-.432980E-03
       N       E                     dE             d eps       ncg     rms          rms(c)
RMM:   1     0.695425288681E+03   -0.22689E-03   -0.92306E-03   655   0.154E-01    0.136E-02
RMM:   2     0.695425412887E+03    0.12421E-03    0.92857E-04   491   0.602E-02    0.102E-02
RMM:   3     0.695425372077E+03   -0.40810E-04   -0.42750E-04   428   0.236E-02
  43 F= 0.69542537E+03 E0= 0.69545222E+03  d E =-.562812E-03
       N       E                     dE             d eps       ncg     rms          rms(c)
RMM:   1     0.695425327568E+03   -0.85319E-04   -0.11975E-03   720   0.554E-02    0.527E-03
RMM:   2     0.695425302483E+03   -0.25084E-04   -0.26020E-04   455   0.249E-02
  44 F= 0.69542530E+03 E0= 0.69545214E+03  d E =-.632405E-03
       N       E                     dE             d eps       ncg     rms          rms(c)
RMM:   1     0.695425249218E+03   -0.78350E-04   -0.87743E-04   625   0.422E-02    0.415E-03
RMM:   2     0.695425228182E+03   -0.21036E-04   -0.22001E-04   380   0.229E-02
  45 F= 0.69542523E+03 E0= 0.69545206E+03  d E =-.706707E-03
       N       E                     dE             d eps       ncg     rms          rms(c)
RMM:   1     0.695423907075E+03   -0.13421E-02   -0.68859E-02   687   0.415E-01    0.576E-02
RMM:   2     0.695425073524E+03    0.11664E-02    0.92941E-03   734   0.153E-01    0.372E-02
RMM:   3     0.695424994969E+03   -0.78555E-04   -0.11399E-03   684   0.443E-02    0.226E-02
RMM:   4     0.695424978992E+03   -0.15977E-04   -0.49680E-04   494   0.318E-02
  46 F= 0.69542498E+03 E0= 0.69545178E+03  d E =-.249190E-03
       N       E                     dE             d eps       ncg     rms          rms(c)
RMM:   1     0.695424712414E+03   -0.28255E-03   -0.14105E-02   658   0.192E-01    0.269E-02
RMM:   2     0.695424869680E+03    0.15727E-03    0.13454E-03   569   0.718E-02    0.306E-02
RMM:   3     0.695424870228E+03    0.54800E-06   -0.37731E-04   412   0.246E-02
  47 F= 0.69542487E+03 E0= 0.69545173E+03  d E =-.357953E-03
       N       E                     dE             d eps       ncg     rms          rms(c)
RMM:   1     0.695424686082E+03   -0.18360E-03   -0.83199E-03   665   0.148E-01    0.139E-02
RMM:   2     0.695424786382E+03    0.10030E-03    0.72937E-04   486   0.563E-02    0.804E-03
RMM:   3     0.695424748808E+03   -0.37574E-04   -0.37352E-04   409   0.227E-02
  48 F= 0.69542475E+03 E0= 0.69545156E+03  d E =-.479374E-03
       N       E                     dE             d eps       ncg     rms          rms(c)
RMM:   1     0.695424704050E+03   -0.82331E-04   -0.10474E-03   694   0.499E-02    0.549E-03
RMM:   2     0.695424680943E+03   -0.23107E-04   -0.23445E-04   431   0.234E-02
  49 F= 0.69542468E+03 E0= 0.69545148E+03  d E =-.547238E-03
       N       E                     dE             d eps       ncg     rms          rms(c)
RMM:   1     0.695424629396E+03   -0.74654E-04   -0.84500E-04   622   0.413E-02    0.425E-03
RMM:   2     0.695424613471E+03   -0.15925E-04   -0.16597E-04   380   0.250E-02
  50 F= 0.69542461E+03 E0= 0.69545143E+03  d E =-.614711E-03
