 vasp.5.4.1 24Jun15 (build Jan 06 2016 13:19:48) gamma-only                     
  
 executed on           IFC91_ompi date 2016.02.26  16:37:19
 running on    8 total cores
 distrk:  each k-point on    8 cores,    1 groups
 distr:  one band on NCORES_PER_BAND=   4 cores,    2 groups


--------------------------------------------------------------------------------------------------------


 INCAR:
 POTCAR:    PAW Zr                                
 POTCAR:    PAW O_s                               
 POTCAR:    PAW Zr                                
   VRHFIN =Zr: 4s4p5s4d                                                         
   LEXCH  = 91                                                                  
   EATOM  =  1284.9830 eV,   94.4436 Ry                                         
                                                                                
   TITEL  = PAW Zr                                                              
   LULTRA =        F    use ultrasoft PP ?                                      
   IUNSCR =        1    unscreen: 0-lin 1-nonlin 2-no                           
   RPACOR =    2.200    partial core radius                                     
   POMASS =   91.224; ZVAL   =   12.000    mass and valenz                      
   RCORE  =    2.500    outmost cutoff radius                                   
   RWIGS  =    3.070; RWIGS  =    1.625    wigner-seitz radius (au A)           
   ENMAX  =  229.898; ENMIN  =  172.423 eV                                      
   RCLOC  =    2.213    cutoff for local pot                                    
   LCOR   =        T    correct aug charges                                     
   LPAW   =        T    paw PP                                                  
   EAUG   =  357.078                                                            
   DEXC   =     .000                                                            
   RMAX   =    3.041    core radius for proj-oper                               
   RDEP   =    2.597    core radius for depl-charge                             
   QCUT   =   -4.111; QGAM   =    8.221    optimization parameters              
                                                                                
   Description                                                                  
     l     E      TYP  RCUT    TYP  RCUT                                        
     0   .000     23  2.500                                                     
     0   .000     23  2.500                                                     
     1   .000     23  2.500                                                     
     1   .000     23  2.500                                                     
     2   .000     23  2.500                                                     
     2   .000     23  2.500                                                     
     3   .000      7   .000                                                     
  local pseudopotential read in
  partial core-charges read in
  atomic valenz-charges read in
  non local Contribution for L=           0  read in
    real space projection operators read in
  non local Contribution for L=           0  read in
    real space projection operators read in
  non local Contribution for L=           1  read in
    real space projection operators read in
  non local Contribution for L=           1  read in
    real space projection operators read in
  non local Contribution for L=           2  read in
    real space projection operators read in
  non local Contribution for L=           2  read in
    real space projection operators read in
    PAW grid and wavefunctions read in
 
   number of l-projection  operators is LMAX  =           6
   number of lm-projection operators is LMMAX =          18
 
 POTCAR:    PAW O_s                               
   VRHFIN =O: s2p4                                                              
   LEXCH  = 91                                                                  
   EATOM  =   433.0277 eV,   31.8266 Ry                                         
                                                                                
   TITEL  = PAW O_s                                                             
   LULTRA =        F    use ultrasoft PP ?                                      
   IUNSCR =        0    unscreen: 0-lin 1-nonlin 2-no                           
   RPACOR =     .000    partial core radius                                     
   POMASS =   16.000; ZVAL   =    6.000    mass and valenz                      
   RCORE  =    1.900    outmost cutoff radius                                   
   RWIGS  =    1.700; RWIGS  =     .900    wigner-seitz radius (au A)           
   ENMAX  =  250.000; ENMIN  =  202.667 eV                                      
   RCLOC  =    1.014    cutoff for local pot                                    
   LCOR   =        T    correct aug charges                                     
   LPAW   =        T    paw PP                                                  
   EAUG   =  412.352                                                            
   DEXC   =     .000                                                            
   RMAX   =    2.805    core radius for proj-oper                               
   RDEP   =    2.002    core radius for depl-charge                             
   QCUT   =   -4.457; QGAM   =    8.913    optimization parameters              
                                                                                
   Description                                                                  
     l     E      TYP  RCUT    TYP  RCUT                                        
     0   .000     23  1.500                                                     
     0   .000     23  1.500                                                     
     1   .000     23  1.900                                                     
     1   .000     23  1.900                                                     
     2   .000      7   .000                                                     
  local pseudopotential read in
  atomic valenz-charges read in
  non local Contribution for L=           0  read in
    real space projection operators read in
  non local Contribution for L=           0  read in
    real space projection operators read in
  non local Contribution for L=           1  read in
    real space projection operators read in
  non local Contribution for L=           1  read in
    real space projection operators read in
    PAW grid and wavefunctions read in
 
   number of l-projection  operators is LMAX  =           4
   number of lm-projection operators is LMMAX =           8
 
 Optimization of the real space projectors (new method)

 maximal supplied QI-value         = 15.12
 optimisation between [QCUT,QGAM] = [  8.47, 16.93] = [ 20.07, 80.28] Ry 
 Optimized for a Real-space Cutoff    1.67 Angstroem

   l    n(q)    QCUT    max X(q) W(low)/X(q) W(high)/X(q)  e(spline) 
   0      8     8.466     7.926    0.18E-04    0.53E-05    0.54E-08
   0      8     8.466     9.465    0.58E-04    0.31E-04    0.38E-07
   1      8     8.466     4.278    0.40E-04    0.40E-04    0.21E-07
   1      8     8.466     9.988    0.46E-03    0.45E-03    0.19E-06
   2      7     8.466     3.886    0.47E-04    0.46E-04    0.37E-07
   2      7     8.466    29.155    0.41E-03    0.15E-02    0.46E-06
 Optimization of the real space projectors (new method)

 maximal supplied QI-value         = 19.84
 optimisation between [QCUT,QGAM] = [  8.33, 16.87] = [ 19.45, 79.66] Ry 
 Optimized for a Real-space Cutoff    1.67 Angstroem

   l    n(q)    QCUT    max X(q) W(low)/X(q) W(high)/X(q)  e(spline) 
   0      8     8.334     3.485    0.84E-05    0.10E-04    0.85E-07
   0      8     8.334    30.133    0.11E-03    0.28E-03    0.23E-06
   1      8     8.334     3.755    0.67E-04    0.37E-04    0.14E-06
   1      8     8.334    24.805    0.39E-03    0.35E-03    0.29E-06
  PAW Zr                                :
 energy of atom  1       EATOM=-1284.9830
 kinetic energy error for atom=    0.0268 (will be added to EATOM!!)
  PAW O_s                               :
 energy of atom  2       EATOM= -433.0277
 kinetic energy error for atom=    0.0747 (will be added to EATOM!!)
 
 
 POSCAR: Zr O                                    
  positions in direct lattice
  velocities in cartesian coordinates
 exchange correlation table for  LEXCH =        7
   RHO(1)=    0.500       N(1)  =     2000
   RHO(2)=  100.500       N(2)  =     4000

 VTST: version 3.1, (03/28/14)

 CHAIN: initializing optimizer
 
 OPT: Using VASP Conjugate-Gradient optimizer
 CHAIN: Read ICHAIN            0
 
 POSCAR: Zr O                                    
  positions in direct lattice
  velocities in cartesian coordinates
 


--------------------------------------------------------------------------------------------------------


 ion  position               nearest neighbor table
   1  0.746  0.626  0.509-  13 2.32  21 2.82  37 2.94   9 2.96   2 3.08  17 3.14
   2  0.622  0.745  0.506-  13 2.69  21 2.74  11 2.88  37 2.94  19 3.01   1 3.08
   3  0.255  0.615  0.506-  14 2.63  10 2.78  22 2.86  35 2.91  18 2.94   4 3.12
   4  0.373  0.743  0.510-  14 2.33  22 2.78  35 2.91  11 3.02   3 3.12  19 3.17
   5  0.252  0.381  0.510-  15 2.40  10 2.82  23 2.87  34 2.94  18 3.10   6 3.12
   6  0.372  0.255  0.508-  15 2.61  23 2.75  12 2.86  34 2.91   5 3.12  20 3.15
   7  0.749  0.384  0.507-  16 2.70   9 2.70  24 2.81  38 2.96  17 2.96   8 3.13
   8  0.632  0.256  0.512-  16 2.29  24 2.82  38 2.91  12 3.06   7 3.13  20 3.26
   9  0.690  0.494  0.591-   7 2.70  38 2.96   1 2.96  28 2.98  37 2.99  13 3.12  16 3.24  25 3.26
                            17 3.35  33 3.43
  10  0.311  0.501  0.593-   3 2.78   5 2.82  26 2.98  35 2.98  34 3.00  15 3.07  27 3.15  14 3.30
                            33 3.41  18 3.43
  11  0.504  0.684  0.596-  25 2.67   2 2.88  37 2.94  35 3.00   4 3.02  26 3.20  14 3.21  13 3.30
                            33 3.34  19 3.45
  12  0.494  0.312  0.593-  27 2.74   6 2.86  34 2.92  38 3.01   8 3.06  16 3.23  15 3.28  28 3.28
                            33 3.36  20 3.49
  13  0.686  0.666  0.616-   1 2.32   2 2.69  25 2.73   9 3.12  37 3.13  11 3.30
  14  0.327  0.682  0.614-   4 2.33   3 2.63  26 2.85  35 3.15  11 3.21  10 3.30
  15  0.314  0.332  0.617-   5 2.40   6 2.61  27 2.71  10 3.07  34 3.16  12 3.28
  16  0.671  0.317  0.616-   8 2.29   7 2.70  28 2.83  38 3.14  12 3.23   9 3.24
  17  0.689  0.499  0.405-  32 2.67  37 2.91  38 2.92   7 2.96  29 3.04  24 3.14   1 3.14  21 3.23
                             9 3.35  36 3.42
  18  0.312  0.502  0.402-  31 2.79  30 2.79  35 2.91   3 2.94  34 2.95   5 3.10  22 3.17  23 3.25
                            36 3.39  10 3.43
  19  0.502  0.687  0.404-  29 2.74  35 2.91  37 2.92  30 2.98   2 3.01  21 3.12   4 3.17  22 3.18
                            36 3.42  11 3.45
  20  0.499  0.306  0.400-  38 2.99  34 3.00  31 3.02   6 3.15  23 3.17  32 3.18  24 3.26   8 3.26
                            36 3.46  12 3.49
  21  0.673  0.676  0.380-  29 2.32   2 2.74   1 2.82  37 3.07  19 3.12  17 3.23
  22  0.328  0.676  0.378-  30 2.30   4 2.78   3 2.86  35 3.07  18 3.17  19 3.18
  23  0.325  0.324  0.380-  31 2.31   6 2.75   5 2.87  34 3.04  20 3.17  18 3.25
  24  0.678  0.327  0.380-  32 2.31   7 2.81   8 2.82  38 3.03  17 3.14  20 3.26
  25  0.575  0.593  0.689-  39 2.29  11 2.67  13 2.73  33 2.73  26 3.01  28 3.10   9 3.26  37 3.48

  26  0.409  0.578  0.702-  39 2.21  14 2.85  33 2.88  10 2.98  25 3.01  27 3.10  11 3.20  35 3.72

  27  0.423  0.407  0.689-  39 2.27  15 2.71  33 2.72  12 2.74  28 3.04  26 3.10  10 3.15  34 3.50

  28  0.591  0.422  0.701-  39 2.23  16 2.83  33 2.84   9 2.98  27 3.04  25 3.10  12 3.28  38 3.72

  29  0.590  0.602  0.314-  21 2.32  19 2.74  36 2.80  17 3.04  37 3.31  32 3.42  30 3.42
  30  0.400  0.593  0.313-  22 2.30  18 2.79  36 2.81  19 2.98  35 3.30  31 3.35  29 3.42
  31  0.396  0.407  0.313-  23 2.31  18 2.79  36 2.80  20 3.02  34 3.28  30 3.35  32 3.85
  32  0.610  0.412  0.313-  24 2.31  17 2.67  36 2.84  20 3.18  38 3.30  29 3.42  31 3.85
  33  0.500  0.498  0.597-  39 2.40  27 2.72  25 2.73  28 2.84  37 2.86  35 2.88  26 2.88  34 2.88
                            38 2.89  11 3.34  12 3.36  10 3.41   9 3.43  36 3.80
  34  0.412  0.412  0.495-  33 2.88   6 2.91  12 2.92   5 2.94  18 2.95  36 2.96  10 3.00  20 3.00
                            23 3.04  38 3.14  35 3.15  15 3.16  31 3.28  27 3.50
  35  0.413  0.587  0.495-  33 2.88   3 2.91  18 2.91   4 2.91  19 2.91  36 2.98  10 2.98  11 3.00
                            22 3.07  37 3.14  14 3.15  34 3.15  30 3.30  26 3.72
  36  0.500  0.498  0.386-  29 2.80  31 2.80  30 2.81  32 2.84  34 2.96  38 2.97  35 2.98  37 3.00
                            18 3.39  17 3.42  19 3.42  20 3.46  33 3.80
  37  0.588  0.585  0.497-  33 2.86  17 2.91  19 2.92   2 2.94  11 2.94   1 2.94   9 2.99  36 3.00
                            21 3.07  13 3.13  35 3.14  38 3.15  29 3.31  25 3.48
  38  0.587  0.410  0.495-  33 2.89   8 2.91  17 2.92   7 2.96   9 2.96  36 2.97  20 2.99  12 3.01
                            24 3.03  34 3.14  16 3.14  37 3.15  32 3.30  28 3.72
  39  0.499  0.499  0.731-  26 2.21  28 2.23  27 2.27  25 2.29  33 2.40
 

IMPORTANT INFORMATION: All symmetrisations will be switched off!
NOSYMM: (Re-)initialisation of all symmetry stuff for point group C_1.

 
 
 KPOINTS: Automatic Mesh                          

Automatic generation of k-mesh.
Space group operators:
 irot       det(A)        alpha          n_x          n_y          n_z        tau_x        tau_y        tau_z
    1     1.000000     0.000000     1.000000     0.000000     0.000000     0.000000     0.000000     0.000000
 
 Subroutine IBZKPT returns following result:
 ===========================================
 
 Found      1 irreducible k-points:
 
 Following reciprocal coordinates:
            Coordinates               Weight
  0.000000  0.000000  0.000000      1.000000
 
 Following cartesian coordinates:
            Coordinates               Weight
  0.000000  0.000000  0.000000      1.000000
 


--------------------------------------------------------------------------------------------------------




 Dimension of arrays:
   k-points           NKPTS =      1   k-points in BZ     NKDIM =      1   number of bands    NBANDS=    278
   number of dos      NEDOS =    301   number of ions     NIONS =     39
   non local maximal  LDIM  =      6   non local SUM 2l+1 LMDIM =     18
   total plane-waves  NPLWV = 512000
   max r-space proj   IRMAX =   1756   max aug-charges    IRDMAX=   5558
   dimension x,y,z NGX =    80 NGY =   80 NGZ =   80
   dimension x,y,z NGXF=   160 NGYF=  160 NGZF=  160
   support grid    NGXF=   160 NGYF=  160 NGZF=  160
   ions per type =              38   1
 NGX,Y,Z   is equivalent  to a cutoff of   7.39,  7.39,  7.39 a.u.
 NGXF,Y,Z  is equivalent  to a cutoff of  14.78, 14.78, 14.78 a.u.


 I would recommend the setting:
   dimension x,y,z NGX =    73 NGY =   73 NGZ =   73
 SYSTEM =  Pt cube particle                        
 POSCAR =  Zr O                                    

 Startparameter for this run:
   NWRITE =      2    write-flag & timer
   PREC   = normal    normal or accurate (medium, high low for compatibility)
   ISTART =      0    job   : 0-new  1-cont  2-samecut
   ICHARG =      2    charge: 1-file 2-atom 10-const
   ISPIN  =      1    spin polarized calculation?
   LNONCOLLINEAR =      F non collinear calculations
   LSORBIT =      F    spin-orbit coupling
   INIWAV =      1    electr: 0-lowe 1-rand  2-diag
   LASPH  =      F    aspherical Exc in radial PAW
   METAGGA=      F    non-selfconsistent MetaGGA calc.

 Electronic Relaxation 1
   ENCUT  =  274.0 eV  20.14 Ry    4.49 a.u.  24.29 24.29 24.29*2*pi/ulx,y,z
   ENINI  =  274.0     initial cutoff
   ENAUG  =  412.4 eV  augmentation charge cutoff
   NELM   =     60;   NELMIN=  2; NELMDL=-12     # of ELM steps 
   EDIFF  = 0.1E-03   stopping-criterion for ELM
   LREAL  =      T    real-space projection
   NLSPLINE    = F    spline interpolate recip. space projectors
   LCOMPAT=      F    compatible to vasp.4.4
   GGA_COMPAT  = T    GGA compatible to vasp.4.4-vasp.4.6
   LMAXPAW     = -100 max onsite density
   LMAXMIX     =    2 max onsite mixed and CHGCAR
   VOSKOWN=      0    Vosko Wilk Nusair interpolation
   ROPT   =   -0.00050  -0.00050
 Ionic relaxation
   EDIFFG = -.5E-02   stopping-criterion for IOM
   NSW    =    200    number of steps for IOM
   NBLOCK =      1;   KBLOCK =    200    inner block; outer block 
   IBRION =      2    ionic relax: 0-MD 1-quasi-New 2-CG
   NFREE  =      1    steps in history (QN), initial steepest desc. (CG)
   ISIF   =      0    stress and relaxation
   IWAVPR =     11    prediction:  0-non 1-charg 2-wave 3-comb
   ISYM   =      0    0-nonsym 1-usesym 2-fastsym
   LCORR  =      T    Harris-Foulkes like correction to forces

   POTIM  = 0.1000    time-step for ionic-motion
   TEIN   =    0.0    initial temperature
   TEBEG  =    0.0;   TEEND  =   0.0 temperature during run
   SMASS  =  -3.00    Nose mass-parameter (am)
   estimated Nose-frequenzy (Omega)   =  0.10E-29 period in steps =****** mass=  -0.740E-26a.u.
   SCALEE = 1.0000    scale energy and forces
   NPACO  =    256;   APACO  = 16.0  distance and # of slots for P.C.
   PSTRESS=    0.0 pullay stress

  Mass of Ions in am
   POMASS =  91.22 16.00
  Ionic Valenz
   ZVAL   =  12.00  6.00
  Atomic Wigner-Seitz radii
   RWIGS  =  -1.00 -1.00
  virtual crystal weights 
   VCA    =   1.00  1.00
   NELECT =     462.0000    total number of electrons
   NUPDOWN=      -1.0000    fix difference up-down

 DOS related values:
   EMIN   =  10.00;   EMAX   =-10.00  energy-range for DOS
   EFERMI =   0.00
   ISMEAR =     1;   SIGMA  =   0.20  broadening in eV -4-tet -1-fermi 0-gaus

 Electronic relaxation 2 (details)
   IALGO  =     48    algorithm
   LDIAG  =      T    sub-space diagonalisation (order eigenvalues)
   LSUBROT=      F    optimize rotation matrix (better conditioning)
   TURBO    =      0    0=normal 1=particle mesh
   IRESTART =      0    0=no restart 2=restart with 2 vectors
   NREBOOT  =      0    no. of reboots
   NMIN     =      0    reboot dimension
   EREF     =   0.00    reference energy to select bands
   IMIX   =      4    mixing-type and parameters
     AMIX     =   0.40;   BMIX     =  1.00
     AMIX_MAG =   1.60;   BMIX_MAG =  1.00
     AMIN     =   0.10
     WC   =   100.;   INIMIX=   1;  MIXPRE=   1;  MAXMIX= -45

 Intra band minimization:
   WEIMIN = 0.0010     energy-eigenvalue tresh-hold
   EBREAK =  0.90E-07  absolut break condition
   DEPER  =   0.30     relativ break condition  

   TIME   =   0.40     timestep for ELM

  volume/ion in A,a.u.               =     149.54      1009.14
  Fermi-wavevector in a.u.,A,eV,Ry     =   0.703099  1.328664  6.726011  0.494348
  Thomas-Fermi vector in A             =   1.787978
 
 Write flags
   LWAVE  =      F    write WAVECAR
   LCHARG =      F    write CHGCAR
   LVTOT  =      F    write LOCPOT, total local potential
   LVHAR  =      F    write LOCPOT, Hartree potential only
   LELF   =      F    write electronic localiz. function (ELF)
   LORBIT =      0    0 simple, 1 ext, 2 COOP (PROOUT)


 Dipole corrections
   LMONO  =      F    monopole corrections only (constant potential shift)
   LDIPOL =      F    correct potential (dipole corrections)
   IDIPOL =      0    1-x, 2-y, 3-z, 4-all directions 
   EPSILON=  1.0000000 bulk dielectric constant

 Exchange correlation treatment:
   GGA     =    --    GGA type
   LEXCH   =     7    internal setting for exchange type
   VOSKOWN=      0    Vosko Wilk Nusair interpolation
   LHFCALC =     F    Hartree Fock is set to
   LHFONE  =     F    Hartree Fock one center treatment
   AEXX    =    0.0000 exact exchange contribution

 Linear response parameters
   LEPSILON=     F    determine dielectric tensor
   LRPA    =     F    only Hartree local field effects (RPA)
   LNABLA  =     F    use nabla operator in PAW spheres
   LVEL    =     F    velocity operator in full k-point grid
   LINTERFAST=   F  fast interpolation
   KINTER  =     0    interpolate to denser k-point grid
   CSHIFT  =0.1000    complex shift for real part using Kramers Kronig
   OMEGAMAX=  -1.0    maximum frequency
   DEG_THRESHOLD= 0.2000000E-02 threshold for treating states as degnerate
   RTIME   =    0.100 relaxation time in fs

 Orbital magnetization related:
   ORBITALMAG=     F  switch on orbital magnetization
   LCHIMAG   =     F  perturbation theory with respect to B field
   DQ        =  0.001000  dq finite difference perturbation B field



--------------------------------------------------------------------------------------------------------


 conjugate gradient relaxation of ions
   using selective dynamics as specified on POSCAR
 charge density and potential will be updated during run
 non-spin polarized calculation
 RMM-DIIS sequential band-by-band
 perform sub-space diagonalisation
    before iterative eigenvector-optimisation
 modified Broyden-mixing scheme, WC =      100.0
 initial mixing is a Kerker type mixing with AMIX =  0.4000 and BMIX =      1.0000
 Hartree-type preconditioning will be used
 using additional bands           47
 real space projection scheme for non local part
 use partial core corrections
 calculate Harris-corrections to forces 
   (improved forces if not selfconsistent)
 use gradient corrections 
 use of overlap-Matrix (Vanderbilt PP)
 Methfessel and Paxton  Order N= 1 SIGMA  =   0.20


--------------------------------------------------------------------------------------------------------


  energy-cutoff  :      274.00
  volume of cell :     5832.00
      direct lattice vectors                 reciprocal lattice vectors
    18.000000000  0.000000000  0.000000000     0.055555556  0.000000000  0.000000000
     0.000000000 18.000000000  0.000000000     0.000000000  0.055555556  0.000000000
     0.000000000  0.000000000 18.000000000     0.000000000  0.000000000  0.055555556

  length of vectors
    18.000000000 18.000000000 18.000000000     0.055555556  0.055555556  0.055555556


 
 k-points in units of 2pi/SCALE and weight: Automatic Mesh                          
   0.00000000  0.00000000  0.00000000       1.000
 
 k-points in reciprocal lattice and weights: Automatic Mesh                          
   0.00000000  0.00000000  0.00000000       1.000
 
 position of ions in fractional coordinates (direct lattice) 
   0.74591087  0.62642104  0.50931903
   0.62192258  0.74459204  0.50581794
   0.25488259  0.61542620  0.50550188
   0.37272956  0.74256994  0.50989580
   0.25247802  0.38108898  0.50959880
   0.37186981  0.25542809  0.50845366
   0.74867704  0.38449618  0.50683671
   0.63189047  0.25575434  0.51199218
   0.69042860  0.49447892  0.59069895
   0.31076356  0.50064173  0.59289734
   0.50429272  0.68402833  0.59616055
   0.49356684  0.31188475  0.59341013
   0.68565156  0.66609612  0.61619587
   0.32680341  0.68189283  0.61426749
   0.31411057  0.33188431  0.61705079
   0.67147554  0.31726545  0.61625578
   0.68857118  0.49876829  0.40477299
   0.31202063  0.50233542  0.40233458
   0.50205658  0.68713481  0.40433065
   0.49890083  0.30618320  0.39963493
   0.67311175  0.67568685  0.37995185
   0.32770514  0.67616032  0.37788729
   0.32504045  0.32382870  0.37981980
   0.67775816  0.32659772  0.38032938
   0.57458435  0.59298967  0.68942463
   0.40861812  0.57798936  0.70165438
   0.42283615  0.40700559  0.68902431
   0.59068980  0.42214577  0.70109167
   0.59035938  0.60165599  0.31410142
   0.40032152  0.59340359  0.31294478
   0.39619760  0.40720527  0.31347613
   0.61014283  0.41249416  0.31291874
   0.49998794  0.49841381  0.59702712
   0.41207662  0.41162474  0.49511780
   0.41346651  0.58685376  0.49548004
   0.49976048  0.49793387  0.38590756
   0.58805848  0.58530653  0.49697834
   0.58666633  0.41007289  0.49493695
   0.49861543  0.49926046  0.73050175
 
 position of ions in cartesian coordinates  (Angst):
  13.42639571 11.27557875  9.16774261
  11.19460638 13.40265676  9.10472288
   4.58788658 11.07767162  9.09903382
   6.70913206 13.36625895  9.17812438
   4.54460445  6.85960171  9.17277846
   6.69365656  4.59770564  9.15216586
  13.47618668  6.92093117  9.12306071
  11.37402842  4.60357816  9.21585926
  12.42771474  8.90062059 10.63258116
   5.59374401  9.01155105 10.67215217
   9.07726905 12.31250992 10.73088984
   8.88420306  5.61392546 10.68138241
  12.34172800 11.98973022 11.09152567
   5.88246138 12.27407086 11.05681476
   5.65399033  5.97391756 11.10691429
  12.08655973  5.71077814 11.09260402
  12.39428119  8.97782913  7.28591376
   5.61637127  9.04203748  7.24202250
   9.03701848 12.36842663  7.27795174
   8.98021490  5.51129752  7.19342882
  12.11601153 12.16236328  6.83913329
   5.89869247 12.17088573  6.80197124
   5.85072816  5.82891663  6.83675640
  12.19964684  5.87875890  6.84592892
  10.34251832 10.67381406 12.40964333
   7.35512620 10.40380848 12.62977883
   7.61105079  7.32610063 12.40243757
  10.63241641  7.59862389 12.61965005
  10.62646877 10.82980779  5.65382557
   7.20578731 10.68126453  5.63300599
   7.13155678  7.32969478  5.64257033
  10.98257101  7.42489481  5.63253729
   8.99978297  8.97144857 10.74648821
   7.41737918  7.40924527  8.91212047
   7.44239723 10.56336771  8.91864067
   8.99568862  8.96280973  6.94633615
  10.58505263 10.53551760  8.94561009
  10.55999402  7.38131208  8.90886506
   8.97507779  8.98668823 13.14903142
 


--------------------------------------------------------------------------------------------------------


 use parallel FFT for wavefunctions z direction half grid
 k-point  1 :   0.0000 0.0000 0.0000  plane waves:   30123

 maximum and minimum number of plane-waves per node :      7537     7520

 maximum number of plane-waves:     30123
 maximum index in each direction: 
   IXMAX=   24   IYMAX=   24   IZMAX=   24
   IXMIN=  -24   IYMIN=  -24   IZMIN=    0

 WARNING: aliasing errors must be expected set NGX to  98 to avoid them
 WARNING: aliasing errors must be expected set NGY to  98 to avoid them
 WARNING: aliasing errors must be expected set NGZ to  98 to avoid them
 aliasing errors are usually negligible using standard VASP settings
 and one can safely disregard these warnings

 real space projection operators:
  total allocation   :       8956.89 KBytes
  max/ min on nodes  :       2244.75       2233.19


 parallel 3D FFT for wavefunctions:
    minimum data exchange during FFTs selected (reduces bandwidth)
 parallel 3D FFT for charge:
    minimum data exchange during FFTs selected (reduces bandwidth)


 total amount of memory used by VASP on root node   103973. kBytes
========================================================================

   base      :      30000. kBytes
   nonlr-proj:       2752. kBytes
   fftplans  :      20116. kBytes
   grid      :      34073. kBytes
   one-center:         77. kBytes
   wavefun   :      16955. kBytes
 
     INWAV:  cpu time    0.0000: real time    0.0000
 Broyden mixing: mesh for mixing (old mesh)
   NGX = 49   NGY = 49   NGZ = 49
  (NGX  =160   NGY  =160   NGZ  =160)
  gives a total of 117649 points

 initial charge density was supplied:
 charge density of overlapping atoms calculated
 number of electron     462.0000000 magnetization 
 keeping initial charge density in first step


--------------------------------------------------------------------------------------------------------


 Maximum index for non-local projection operator          431
 Maximum index for augmentation-charges          689 (set IRDMAX)


--------------------------------------------------------------------------------------------------------


 First call to EWALD:  gamma=   0.098
 Maximum number of real-space cells 3x 3x 3
 Maximum number of reciprocal cells 3x 3x 3

 FEWALD executed in parallel
    FEWALD:  cpu time    0.0090: real time    0.0082


----------------------------------------- Iteration    1(   1)  ---------------------------------------


    POTLOK:  cpu time    1.4308: real time    1.4319
    SETDIJ:  cpu time    0.0180: real time    0.0187
    EDDIAG:  cpu time    3.0905: real time    3.0909
  RMM-DIIS:  cpu time    6.2560: real time    6.2581
    ORTHCH:  cpu time    0.2720: real time    0.2718
       DOS:  cpu time    0.0010: real time    0.0010
    --------------------------------------------
      LOOP:  cpu time   11.0703: real time   11.0758

 eigenvalue-minimisations  :   278
 total energy-change (2. order) : 0.5685774E+04  (-0.1653463E+05)
 number of electron     462.0000000 magnetization 
 augmentation part      462.0000000 magnetization 

 Free energy of the ion-electron system (eV)
  ---------------------------------------------------
  alpha Z        PSCENC =       658.81366564
  Ewald energy   TEWEN  =     76983.31229703
  -Hartree energ DENC   =   -117578.13201797
  -exchange      EXHF   =         0.00000000
  -V(xc)+E(xc)   XCENC  =      1912.74753826
  PAW double counting   =     32016.11175618   -31354.68682408
  entropy T*S    EENTRO =        -0.05989610
  eigenvalues    EBANDS =     -6213.62177604
  atomic energy  EATOM  =     49261.28908022
  Solvation  Ediel_sol  =         0.00000000
  ---------------------------------------------------
  free energy    TOTEN  =      5685.77382314 eV

  energy without entropy =     5685.83371924  energy(sigma->0) =     5685.79378851


--------------------------------------------------------------------------------------------------------




----------------------------------------- Iteration    1(   2)  ---------------------------------------


    EDDIAG:  cpu time    3.1165: real time    3.1177
  RMM-DIIS:  cpu time    6.2670: real time    6.2683
    ORTHCH:  cpu time    0.2720: real time    0.2720
       DOS:  cpu time    0.0010: real time    0.0010
    --------------------------------------------
      LOOP:  cpu time    9.6625: real time    9.6654

 eigenvalue-minimisations  :   278
 total energy-change (2. order) :-0.4445258E+04  (-0.8982871E+04)
 number of electron     462.0000000 magnetization 
 augmentation part      462.0000000 magnetization 

 Free energy of the ion-electron system (eV)
  ---------------------------------------------------
  alpha Z        PSCENC =       658.81366564
  Ewald energy   TEWEN  =     76983.31229703
  -Hartree energ DENC   =   -117578.13201797
  -exchange      EXHF   =         0.00000000
  -V(xc)+E(xc)   XCENC  =      1912.74753826
  PAW double counting   =     32016.11175618   -31354.68682408
  entropy T*S    EENTRO =        -0.23761449
  eigenvalues    EBANDS =    -10658.70216096
  atomic energy  EATOM  =     49261.28908022
  Solvation  Ediel_sol  =         0.00000000
  ---------------------------------------------------
  free energy    TOTEN  =      1240.51571983 eV

  energy without entropy =     1240.75333432  energy(sigma->0) =     1240.59492466


--------------------------------------------------------------------------------------------------------




----------------------------------------- Iteration    1(   3)  ---------------------------------------


    EDDIAG:  cpu time    3.0925: real time    3.0936
  RMM-DIIS:  cpu time    6.2660: real time    6.2767
    ORTHCH:  cpu time    0.2750: real time    0.2744
       DOS:  cpu time    0.0010: real time    0.0011
    --------------------------------------------
      LOOP:  cpu time    9.6395: real time    9.6529

 eigenvalue-minimisations  :   278
 total energy-change (2. order) : 0.3522314E+03  (-0.4045955E+04)
 number of electron     462.0000000 magnetization 
 augmentation part      462.0000000 magnetization 

 Free energy of the ion-electron system (eV)
  ---------------------------------------------------
  alpha Z        PSCENC =       658.81366564
  Ewald energy   TEWEN  =     76983.31229703
  -Hartree energ DENC   =   -117578.13201797
  -exchange      EXHF   =         0.00000000
  -V(xc)+E(xc)   XCENC  =      1912.74753826
  PAW double counting   =     32016.11175618   -31354.68682408
  entropy T*S    EENTRO =        -0.34605790
  eigenvalues    EBANDS =    -10306.36235756
  atomic energy  EATOM  =     49261.28908022
  Solvation  Ediel_sol  =         0.00000000
  ---------------------------------------------------
  free energy    TOTEN  =      1592.74707982 eV

  energy without entropy =     1593.09313772  energy(sigma->0) =     1592.86243245


--------------------------------------------------------------------------------------------------------




----------------------------------------- Iteration    1(   4)  ---------------------------------------


    EDDIAG:  cpu time    3.1145: real time    3.1166
  RMM-DIIS:  cpu time    6.2590: real time    6.2631
    ORTHCH:  cpu time    0.2720: real time    0.2733
       DOS:  cpu time    0.0010: real time    0.0009
    --------------------------------------------
      LOOP:  cpu time    9.6495: real time    9.6598

 eigenvalue-minimisations  :   278
 total energy-change (2. order) :-0.6635127E+03  (-0.9506514E+03)
 number of electron     462.0000000 magnetization 
 augmentation part      462.0000000 magnetization 

 Free energy of the ion-electron system (eV)
  ---------------------------------------------------
  alpha Z        PSCENC =       658.81366564
  Ewald energy   TEWEN  =     76983.31229703
  -Hartree energ DENC   =   -117578.13201797
  -exchange      EXHF   =         0.00000000
  -V(xc)+E(xc)   XCENC  =      1912.74753826
  PAW double counting   =     32016.11175618   -31354.68682408
  entropy T*S    EENTRO =        -0.06213728
  eigenvalues    EBANDS =    -10970.15900627
  atomic energy  EATOM  =     49261.28908022
  Solvation  Ediel_sol  =         0.00000000
  ---------------------------------------------------
  free energy    TOTEN  =       929.23435173 eV

  energy without entropy =      929.29648902  energy(sigma->0) =      929.25506416


--------------------------------------------------------------------------------------------------------




----------------------------------------- Iteration    1(   5)  ---------------------------------------


    EDDIAG:  cpu time    3.0755: real time    3.1086
  RMM-DIIS:  cpu time    6.2181: real time    6.2589
    ORTHCH:  cpu time    0.2720: real time    0.2721
       DOS:  cpu time    0.0010: real time    0.0010
    --------------------------------------------
      LOOP:  cpu time    9.5705: real time    9.6463

 eigenvalue-minimisations  :   278
 total energy-change (2. order) :-0.3875105E+03  (-0.5370251E+03)
 number of electron     462.0000000 magnetization 
 augmentation part      462.0000000 magnetization 

 Free energy of the ion-electron system (eV)
  ---------------------------------------------------
  alpha Z        PSCENC =       658.81366564
  Ewald energy   TEWEN  =     76983.31229703
  -Hartree energ DENC   =   -117578.13201797
  -exchange      EXHF   =         0.00000000
  -V(xc)+E(xc)   XCENC  =      1912.74753826
  PAW double counting   =     32016.11175618   -31354.68682408
  entropy T*S    EENTRO =        -0.05203297
  eigenvalues    EBANDS =    -11357.67965823
  atomic energy  EATOM  =     49261.28908022
  Solvation  Ediel_sol  =         0.00000000
  ---------------------------------------------------
  free energy    TOTEN  =       541.72380408 eV

  energy without entropy =      541.77583706  energy(sigma->0) =      541.74114841


--------------------------------------------------------------------------------------------------------




----------------------------------------- Iteration    1(   6)  ---------------------------------------


    EDDIAG:  cpu time    3.1205: real time    3.1216
  RMM-DIIS:  cpu time    6.2960: real time    6.2995
    ORTHCH:  cpu time    0.2720: real time    0.2721
       DOS:  cpu time    0.0010: real time    0.0010
    --------------------------------------------
      LOOP:  cpu time    9.6955: real time    9.7015

 eigenvalue-minimisations  :   278
 total energy-change (2. order) :-0.5441953E+02  (-0.2320843E+03)
 number of electron     462.0000000 magnetization 
 augmentation part      462.0000000 magnetization 

 Free energy of the ion-electron system (eV)
  ---------------------------------------------------
  alpha Z        PSCENC =       658.81366564
  Ewald energy   TEWEN  =     76983.31229703
  -Hartree energ DENC   =   -117578.13201797
  -exchange      EXHF   =         0.00000000
  -V(xc)+E(xc)   XCENC  =      1912.74753826
  PAW double counting   =     32016.11175618   -31354.68682408
  entropy T*S    EENTRO =         0.05954005
  eigenvalues    EBANDS =    -11412.21076265
  atomic energy  EATOM  =     49261.28908022
  Solvation  Ediel_sol  =         0.00000000
  ---------------------------------------------------
  free energy    TOTEN  =       487.30427268 eV

  energy without entropy =      487.24473263  energy(sigma->0) =      487.28442600


--------------------------------------------------------------------------------------------------------




----------------------------------------- Iteration    1(   7)  ---------------------------------------


    EDDIAG:  cpu time    3.0935: real time    3.0941
  RMM-DIIS:  cpu time    6.2530: real time    6.2552
    ORTHCH:  cpu time    0.2710: real time    0.2715
       DOS:  cpu time    0.0010: real time    0.0009
    --------------------------------------------
      LOOP:  cpu time    9.6255: real time    9.6289

 eigenvalue-minimisations  :   278
 total energy-change (2. order) :-0.1396056E+03  (-0.2811949E+03)
 number of electron     462.0000000 magnetization 
 augmentation part      462.0000000 magnetization 

 Free energy of the ion-electron system (eV)
  ---------------------------------------------------
  alpha Z        PSCENC =       658.81366564
  Ewald energy   TEWEN  =     76983.31229703
  -Hartree energ DENC   =   -117578.13201797
  -exchange      EXHF   =         0.00000000
  -V(xc)+E(xc)   XCENC  =      1912.74753826
  PAW double counting   =     32016.11175618   -31354.68682408
  entropy T*S    EENTRO =        -0.00597066
  eigenvalues    EBANDS =    -11551.75090146
  atomic energy  EATOM  =     49261.28908022
  Solvation  Ediel_sol  =         0.00000000
  ---------------------------------------------------
  free energy    TOTEN  =       347.69862316 eV

  energy without entropy =      347.70459383  energy(sigma->0) =      347.70061338


--------------------------------------------------------------------------------------------------------




----------------------------------------- Iteration    1(   8)  ---------------------------------------


    EDDIAG:  cpu time    3.0885: real time    3.0890
  RMM-DIIS:  cpu time    6.2910: real time    6.2929
    ORTHCH:  cpu time    0.2740: real time    0.2741
       DOS:  cpu time    0.0010: real time    0.0009
    --------------------------------------------
      LOOP:  cpu time    9.6605: real time    9.6636

 eigenvalue-minimisations  :   278
 total energy-change (2. order) : 0.3344462E+01  (-0.2288266E+03)
 number of electron     462.0000000 magnetization 
 augmentation part      462.0000000 magnetization 

 Free energy of the ion-electron system (eV)
  ---------------------------------------------------
  alpha Z        PSCENC =       658.81366564
  Ewald energy   TEWEN  =     76983.31229703
  -Hartree energ DENC   =   -117578.13201797
  -exchange      EXHF   =         0.00000000
  -V(xc)+E(xc)   XCENC  =      1912.74753826
  PAW double counting   =     32016.11175618   -31354.68682408
  entropy T*S    EENTRO =        -0.06943681
  eigenvalues    EBANDS =    -11548.34297313
  atomic energy  EATOM  =     49261.28908022
  Solvation  Ediel_sol  =         0.00000000
  ---------------------------------------------------
  free energy    TOTEN  =       351.04308535 eV

  energy without entropy =      351.11252216  energy(sigma->0) =      351.06623095


--------------------------------------------------------------------------------------------------------




----------------------------------------- Iteration    1(   9)  ---------------------------------------


    EDDIAG:  cpu time    3.1175: real time    3.1189
  RMM-DIIS:  cpu time   17.9563: real time   17.9730
    ORTHCH:  cpu time    0.2740: real time    0.2761
       DOS:  cpu time    0.0010: real time    0.0010
    --------------------------------------------
      LOOP:  cpu time   21.3538: real time   21.3737

 eigenvalue-minimisations  :   844
 total energy-change (2. order) : 0.4139036E+02  (-0.1674691E+03)
 number of electron     462.0000000 magnetization 
 augmentation part      462.0000000 magnetization 

 Free energy of the ion-electron system (eV)
  ---------------------------------------------------
  alpha Z        PSCENC =       658.81366564
  Ewald energy   TEWEN  =     76983.31229703
  -Hartree energ DENC   =   -117578.13201797
  -exchange      EXHF   =         0.00000000
  -V(xc)+E(xc)   XCENC  =      1912.74753826
  PAW double counting   =     32016.11175618   -31354.68682408
  entropy T*S    EENTRO =        -0.09411168
  eigenvalues    EBANDS =    -11506.92793593
  atomic energy  EATOM  =     49261.28908022
  Solvation  Ediel_sol  =         0.00000000
  ---------------------------------------------------
  free energy    TOTEN  =       392.43344767 eV

  energy without entropy =      392.52755935  energy(sigma->0) =      392.46481823


--------------------------------------------------------------------------------------------------------




----------------------------------------- Iteration    1(  10)  ---------------------------------------


    EDDIAG:  cpu time    3.0635: real time    3.0977
  RMM-DIIS:  cpu time   17.2874: real time   17.3346
    ORTHCH:  cpu time    0.2750: real time    0.2755
       DOS:  cpu time    0.0010: real time    0.0009
    --------------------------------------------
      LOOP:  cpu time   20.6329: real time   20.7164

 eigenvalue-minimisations  :   826
 total energy-change (2. order) : 0.1261015E+03  (-0.1828435E+03)
 number of electron     462.0000000 magnetization 
 augmentation part      462.0000000 magnetization 

 Free energy of the ion-electron system (eV)
  ---------------------------------------------------
  alpha Z        PSCENC =       658.81366564
  Ewald energy   TEWEN  =     76983.31229703
  -Hartree energ DENC   =   -117578.13201797
  -exchange      EXHF   =         0.00000000
  -V(xc)+E(xc)   XCENC  =      1912.74753826
  PAW double counting   =     32016.11175618   -31354.68682408
  entropy T*S    EENTRO =        -0.03600661
  eigenvalues    EBANDS =    -11380.88455202
  atomic energy  EATOM  =     49261.28908022
  Solvation  Ediel_sol  =         0.00000000
  ---------------------------------------------------
  free energy    TOTEN  =       518.53493665 eV

  energy without entropy =      518.57094327  energy(sigma->0) =      518.54693886


--------------------------------------------------------------------------------------------------------




----------------------------------------- Iteration    1(  11)  ---------------------------------------


    EDDIAG:  cpu time    3.1075: real time    3.1075
  RMM-DIIS:  cpu time   16.1875: real time   16.1913
    ORTHCH:  cpu time    0.2750: real time    0.2749
       DOS:  cpu time    0.0010: real time    0.0009
    --------------------------------------------
      LOOP:  cpu time   19.5740: real time   19.5788

 eigenvalue-minimisations  :   767
 total energy-change (2. order) : 0.1657526E+03  ( 0.5824374E+01)
 number of electron     462.0000000 magnetization 
 augmentation part      462.0000000 magnetization 

 Free energy of the ion-electron system (eV)
  ---------------------------------------------------
  alpha Z        PSCENC =       658.81366564
  Ewald energy   TEWEN  =     76983.31229703
  -Hartree energ DENC   =   -117578.13201797
  -exchange      EXHF   =         0.00000000
  -V(xc)+E(xc)   XCENC  =      1912.74753826
  PAW double counting   =     32016.11175618   -31354.68682408
  entropy T*S    EENTRO =        -0.15230692
  eigenvalues    EBANDS =    -11215.01569525
  atomic energy  EATOM  =     49261.28908022
  Solvation  Ediel_sol  =         0.00000000
  ---------------------------------------------------
  free energy    TOTEN  =       684.28749311 eV

  energy without entropy =      684.43980003  energy(sigma->0) =      684.33826209


--------------------------------------------------------------------------------------------------------




----------------------------------------- Iteration    1(  12)  ---------------------------------------


    EDDIAG:  cpu time    3.1155: real time    3.1165
  RMM-DIIS:  cpu time   18.9781: real time   19.0850
    ORTHCH:  cpu time    0.2730: real time    0.2762
       DOS:  cpu time    0.0010: real time    0.0009
    CHARGE:  cpu time    1.2878: real time    1.3015
    MIXING:  cpu time    0.0290: real time    0.0286
    --------------------------------------------
      LOOP:  cpu time   23.6884: real time   23.8139

 eigenvalue-minimisations  :   892
 total energy-change (2. order) :-0.4350068E+02  (-0.4388903E+02)
 number of electron     461.9999880 magnetization 
 augmentation part      100.9036384 magnetization 

 Broyden mixing:
  rms(total) = 0.35715E+01    rms(broyden)= 0.35694E+01
  rms(prec ) = 0.50988E+01
  weight for this iteration     100.00

 Free energy of the ion-electron system (eV)
  ---------------------------------------------------
  alpha Z        PSCENC =       658.81366564
  Ewald energy   TEWEN  =     76983.31229703
  -Hartree energ DENC   =   -117578.13201797
  -exchange      EXHF   =         0.00000000
  -V(xc)+E(xc)   XCENC  =      1912.74753826
  PAW double counting   =     32016.11175618   -31354.68682408
  entropy T*S    EENTRO =         0.08883487
  eigenvalues    EBANDS =    -11258.75751427
  atomic energy  EATOM  =     49261.28908022
  Solvation  Ediel_sol  =         0.00000000
  ---------------------------------------------------
  free energy    TOTEN  =       640.78681588 eV

  energy without entropy =      640.69798101  energy(sigma->0) =      640.75720426


--------------------------------------------------------------------------------------------------------




----------------------------------------- Iteration    1(  13)  ---------------------------------------


    POTLOK:  cpu time    1.3028: real time    1.3169
    SETDIJ:  cpu time    0.0190: real time    0.0194
    EDDIAG:  cpu time    3.1005: real time    3.1151
  RMM-DIIS:  cpu time   18.6532: real time   18.6570
    ORTHCH:  cpu time    0.2730: real time    0.2724
       DOS:  cpu time    0.0010: real time    0.0009
    CHARGE:  cpu time    1.3468: real time    1.3476
    MIXING:  cpu time    0.0310: real time    0.0302
    --------------------------------------------
      LOOP:  cpu time   24.7282: real time   24.7640

 eigenvalue-minimisations  :   889
 total energy-change (2. order) : 0.3736584E+02  (-0.6472385E+02)
 number of electron     461.9999907 magnetization 
 augmentation part       97.6908566 magnetization 

 Broyden mixing:
  rms(total) = 0.21734E+01    rms(broyden)= 0.21728E+01
  rms(prec ) = 0.34116E+01
  weight for this iteration     100.00

 eigenvalues of (default mixing * dielectric matrix)
  average eigenvalue GAMMA=   0.7985
  0.7985

 Free energy of the ion-electron system (eV)
  ---------------------------------------------------
  alpha Z        PSCENC =       658.81366564
  Ewald energy   TEWEN  =     76983.31229703
  -Hartree energ DENC   =   -117886.64997266
  -exchange      EXHF   =         0.00000000
  -V(xc)+E(xc)   XCENC  =      1886.86331823
  PAW double counting   =     32350.26618246   -31754.10881861
  entropy T*S    EENTRO =        -0.06892802
  eigenvalues    EBANDS =    -10821.56416656
  atomic energy  EATOM  =     49261.28908022
  Solvation  Ediel_sol  =         0.00000000
  ---------------------------------------------------
  free energy    TOTEN  =       678.15265773 eV

  energy without entropy =      678.22158575  energy(sigma->0) =      678.17563374


--------------------------------------------------------------------------------------------------------




----------------------------------------- Iteration    1(  14)  ---------------------------------------


    POTLOK:  cpu time    1.3218: real time    1.3235
    SETDIJ:  cpu time    0.0200: real time    0.0198
    EDDIAG:  cpu time    3.1135: real time    3.1141
  RMM-DIIS:  cpu time   17.1224: real time   17.1271
    ORTHCH:  cpu time    0.2730: real time    0.2728
       DOS:  cpu time    0.0010: real time    0.0009
    CHARGE:  cpu time    1.3818: real time    1.3818
    MIXING:  cpu time    0.0300: real time    0.0306
    --------------------------------------------
      LOOP:  cpu time   23.2655: real time   23.2738

 eigenvalue-minimisations  :   817
 total energy-change (2. order) : 0.2418972E+02  (-0.1102596E+02)
 number of electron     461.9999906 magnetization 
 augmentation part       95.3119495 magnetization 

 Broyden mixing:
  rms(total) = 0.10756E+01    rms(broyden)= 0.10748E+01
  rms(prec ) = 0.15652E+01
  weight for this iteration     100.00

 eigenvalues of (default mixing * dielectric matrix)
  average eigenvalue GAMMA=   0.8211
  0.6459  0.9963

 Free energy of the ion-electron system (eV)
  ---------------------------------------------------
  alpha Z        PSCENC =       658.81366564
  Ewald energy   TEWEN  =     76983.31229703
  -Hartree energ DENC   =   -117712.48177817
  -exchange      EXHF   =         0.00000000
  -V(xc)+E(xc)   XCENC  =      1881.63601820
  PAW double counting   =     32473.39716113   -31880.54068995
  entropy T*S    EENTRO =         0.03630471
  eigenvalues    EBANDS =    -10963.11967834
  atomic energy  EATOM  =     49261.28908022
  Solvation  Ediel_sol  =         0.00000000
  ---------------------------------------------------
  free energy    TOTEN  =       702.34238046 eV

  energy without entropy =      702.30607575  energy(sigma->0) =      702.33027889


--------------------------------------------------------------------------------------------------------




----------------------------------------- Iteration    1(  15)  ---------------------------------------


    POTLOK:  cpu time    1.3258: real time    1.3264
    SETDIJ:  cpu time    0.0200: real time    0.0197
    EDDIAG:  cpu time    3.1125: real time    3.1131
  RMM-DIIS:  cpu time   19.8920: real time   19.9789
    ORTHCH:  cpu time    0.2760: real time    0.2763
       DOS:  cpu time    0.0010: real time    0.0010
    CHARGE:  cpu time    1.3618: real time    1.3618
    MIXING:  cpu time    0.0320: real time    0.0317
    --------------------------------------------
      LOOP:  cpu time   26.0220: real time   26.1115

 eigenvalue-minimisations  :   940
 total energy-change (2. order) :-0.2894009E+01  (-0.1112535E+02)
 number of electron     461.9999904 magnetization 
 augmentation part       91.8838241 magnetization 

 Broyden mixing:
  rms(total) = 0.10126E+01    rms(broyden)= 0.10120E+01
  rms(prec ) = 0.13183E+01
  weight for this iteration     100.00

 eigenvalues of (default mixing * dielectric matrix)
  average eigenvalue GAMMA=   0.7030
  0.9486  0.6214  0.5390

 Free energy of the ion-electron system (eV)
  ---------------------------------------------------
  alpha Z        PSCENC =       658.81366564
  Ewald energy   TEWEN  =     76983.31229703
  -Hartree energ DENC   =   -117888.84511586
  -exchange      EXHF   =         0.00000000
  -V(xc)+E(xc)   XCENC  =      1877.97280784
  PAW double counting   =     32800.55310016   -32193.23266748
  entropy T*S    EENTRO =         0.02255640
  eigenvalues    EBANDS =    -10800.43735261
  atomic energy  EATOM  =     49261.28908022
  Solvation  Ediel_sol  =         0.00000000
  ---------------------------------------------------
  free energy    TOTEN  =       699.44837134 eV

  energy without entropy =      699.42581494  energy(sigma->0) =      699.44085254


--------------------------------------------------------------------------------------------------------




----------------------------------------- Iteration    1(  16)  ---------------------------------------


    POTLOK:  cpu time    1.3268: real time    1.3277
    SETDIJ:  cpu time    0.0200: real time    0.0196
    EDDIAG:  cpu time    3.1265: real time    3.1269
  RMM-DIIS:  cpu time   20.7498: real time   20.7560
    ORTHCH:  cpu time    0.2720: real time    0.2721
       DOS:  cpu time    0.0010: real time    0.0009
    CHARGE:  cpu time    1.3618: real time    1.3613
    MIXING:  cpu time    0.0340: real time    0.0341
    --------------------------------------------
      LOOP:  cpu time   26.8929: real time   26.9017

 eigenvalue-minimisations  :   975
 total energy-change (2. order) : 0.7717390E+00  (-0.3583390E+01)
 number of electron     461.9999905 magnetization 
 augmentation part       89.9413788 magnetization 

 Broyden mixing:
  rms(total) = 0.81695E+00    rms(broyden)= 0.81658E+00
  rms(prec ) = 0.93594E+00
  weight for this iteration     100.00

 eigenvalues of (default mixing * dielectric matrix)
  average eigenvalue GAMMA=   0.7360
  0.9836  0.9836  0.4883  0.4883

 Free energy of the ion-electron system (eV)
  ---------------------------------------------------
  alpha Z        PSCENC =       658.81366564
  Ewald energy   TEWEN  =     76983.31229703
  -Hartree energ DENC   =   -117949.74277817
  -exchange      EXHF   =         0.00000000
  -V(xc)+E(xc)   XCENC  =      1878.39943832
  PAW double counting   =     32936.50498149   -32309.21251357
  entropy T*S    EENTRO =        -0.04127279
  eigenvalues    EBANDS =    -10759.10278788
  atomic energy  EATOM  =     49261.28908022
  Solvation  Ediel_sol  =         0.00000000
  ---------------------------------------------------
  free energy    TOTEN  =       700.22011030 eV

  energy without entropy =      700.26138309  energy(sigma->0) =      700.23386790


--------------------------------------------------------------------------------------------------------




----------------------------------------- Iteration    1(  17)  ---------------------------------------


    POTLOK:  cpu time    1.3258: real time    1.3269
    SETDIJ:  cpu time    0.0200: real time    0.0196
    EDDIAG:  cpu time    3.1265: real time    3.1272
  RMM-DIIS:  cpu time   21.1088: real time   21.1969
    ORTHCH:  cpu time    0.2730: real time    0.2726
       DOS:  cpu time    0.0010: real time    0.0010
    CHARGE:  cpu time    1.2898: real time    1.2911
    MIXING:  cpu time    0.0360: real time    0.0366
    --------------------------------------------
      LOOP:  cpu time   27.1819: real time   27.2747

 eigenvalue-minimisations  :   995
 total energy-change (2. order) :-0.9877301E+00  (-0.1810634E+01)
 number of electron     461.9999905 magnetization 
 augmentation part       88.7319135 magnetization 

 Broyden mixing:
  rms(total) = 0.75713E+00    rms(broyden)= 0.75698E+00
  rms(prec ) = 0.86295E+00
  weight for this iteration     100.00

 eigenvalues of (default mixing * dielectric matrix)
  average eigenvalue GAMMA=   0.8370
  1.2781  1.2781  0.5442  0.5423  0.5423

 Free energy of the ion-electron system (eV)
  ---------------------------------------------------
  alpha Z        PSCENC =       658.81366564
  Ewald energy   TEWEN  =     76983.31229703
  -Hartree energ DENC   =   -118037.83138765
  -exchange      EXHF   =         0.00000000
  -V(xc)+E(xc)   XCENC  =      1879.88750981
  PAW double counting   =     33061.63925641   -32405.08629405
  entropy T*S    EENTRO =        -0.04870862
  eigenvalues    EBANDS =    -10702.74303860
  atomic energy  EATOM  =     49261.28908022
  Solvation  Ediel_sol  =         0.00000000
  ---------------------------------------------------
  free energy    TOTEN  =       699.23238019 eV

  energy without entropy =      699.28108881  energy(sigma->0) =      699.24861639


--------------------------------------------------------------------------------------------------------




----------------------------------------- Iteration    1(  18)  ---------------------------------------


    POTLOK:  cpu time    1.3338: real time    1.3344
    SETDIJ:  cpu time    0.0200: real time    0.0198
    EDDIAG:  cpu time    3.1385: real time    3.1376
  RMM-DIIS:  cpu time   21.7897: real time   21.7929
    ORTHCH:  cpu time    0.2720: real time    0.2723
       DOS:  cpu time    0.0010: real time    0.0010
    CHARGE:  cpu time    1.3178: real time    1.3181
    MIXING:  cpu time    0.0360: real time    0.0362
    --------------------------------------------
      LOOP:  cpu time   27.9108: real time   27.9150

 eigenvalue-minimisations  :  1013
 total energy-change (2. order) :-0.5444296E+00  (-0.1122001E+01)
 number of electron     461.9999907 magnetization 
 augmentation part       87.9767618 magnetization 

 Broyden mixing:
  rms(total) = 0.64114E+00    rms(broyden)= 0.64105E+00
  rms(prec ) = 0.80983E+00
  weight for this iteration     100.00

 eigenvalues of (default mixing * dielectric matrix)
  average eigenvalue GAMMA=   1.0189
  1.9605  1.9605  0.6313  0.6011  0.6011  0.3594

 Free energy of the ion-electron system (eV)
  ---------------------------------------------------
  alpha Z        PSCENC =       658.81366564
  Ewald energy   TEWEN  =     76983.31229703
  -Hartree energ DENC   =   -118118.91374090
  -exchange      EXHF   =         0.00000000
  -V(xc)+E(xc)   XCENC  =      1881.57196356
  PAW double counting   =     33160.23496731   -32470.05463253
  entropy T*S    EENTRO =        -0.06472764
  eigenvalues    EBANDS =    -10657.50092207
  atomic energy  EATOM  =     49261.28908022
  Solvation  Ediel_sol  =         0.00000000
  ---------------------------------------------------
  free energy    TOTEN  =       698.68795063 eV

  energy without entropy =      698.75267827  energy(sigma->0) =      698.70952651


--------------------------------------------------------------------------------------------------------




----------------------------------------- Iteration    1(  19)  ---------------------------------------


    POTLOK:  cpu time    1.3398: real time    1.3400
    SETDIJ:  cpu time    0.0200: real time    0.0200
    EDDIAG:  cpu time    3.1455: real time    3.1456
  RMM-DIIS:  cpu time   19.1211: real time   19.1702
    ORTHCH:  cpu time    0.2740: real time    0.2760
       DOS:  cpu time    0.0010: real time    0.0009
    CHARGE:  cpu time    1.3058: real time    1.3202
    MIXING:  cpu time    0.0390: real time    0.0383
    --------------------------------------------
      LOOP:  cpu time   25.2482: real time   25.3142

 eigenvalue-minimisations  :   901
 total energy-change (2. order) :-0.1752183E+00  (-0.1008284E+01)
 number of electron     461.9999906 magnetization 
 augmentation part       87.4760733 magnetization 

 Broyden mixing:
  rms(total) = 0.38881E+00    rms(broyden)= 0.38871E+00
  rms(prec ) = 0.57413E+00
  weight for this iteration     100.00

 eigenvalues of (default mixing * dielectric matrix)
  average eigenvalue GAMMA=   0.9970
  2.0394  2.0394  1.0357  0.5151  0.5151  0.4508  0.3832

 Free energy of the ion-electron system (eV)
  ---------------------------------------------------
  alpha Z        PSCENC =       658.81366564
  Ewald energy   TEWEN  =     76983.31229703
  -Hartree energ DENC   =   -118288.19488290
  -exchange      EXHF   =         0.00000000
  -V(xc)+E(xc)   XCENC  =      1884.13569323
  PAW double counting   =     33325.58157292   -32572.54450542
  entropy T*S    EENTRO =        -0.07845019
  eigenvalues    EBANDS =    -10553.80173818
  atomic energy  EATOM  =     49261.28908022
  Solvation  Ediel_sol  =         0.00000000
  ---------------------------------------------------
  free energy    TOTEN  =       698.51273234 eV

  energy without entropy =      698.59118253  energy(sigma->0) =      698.53888240


--------------------------------------------------------------------------------------------------------




----------------------------------------- Iteration    1(  20)  ---------------------------------------


    POTLOK:  cpu time    1.3318: real time    1.3443
    SETDIJ:  cpu time    0.0200: real time    0.0197
    EDDIAG:  cpu time    3.1545: real time    3.1544
  RMM-DIIS:  cpu time   20.2679: real time   20.2703
    ORTHCH:  cpu time    0.2730: real time    0.2726
       DOS:  cpu time    0.0010: real time    0.0010
    CHARGE:  cpu time    1.3188: real time    1.3179
    MIXING:  cpu time    0.0390: real time    0.0393
    --------------------------------------------
      LOOP:  cpu time   26.4060: real time   26.4224

 eigenvalue-minimisations  :   955
 total energy-change (2. order) : 0.1927588E+00  (-0.4864942E+00)
 number of electron     461.9999905 magnetization 
 augmentation part       87.2057262 magnetization 

 Broyden mixing:
  rms(total) = 0.30331E+00    rms(broyden)= 0.30323E+00
  rms(prec ) = 0.44438E+00
  weight for this iteration     100.00

 eigenvalues of (default mixing * dielectric matrix)
  average eigenvalue GAMMA=   0.9561
  1.8802  1.8802  1.4283  0.5870  0.5870  0.5659  0.3980  0.3226

 Free energy of the ion-electron system (eV)
  ---------------------------------------------------
  alpha Z        PSCENC =       658.81366564
  Ewald energy   TEWEN  =     76983.31229703
  -Hartree energ DENC   =   -118372.80662367
  -exchange      EXHF   =         0.00000000
  -V(xc)+E(xc)   XCENC  =      1885.25757110
  PAW double counting   =     33398.23268314   -32615.07948611
  entropy T*S    EENTRO =        -0.06046179
  eigenvalues    EBANDS =    -10500.25323440
  atomic energy  EATOM  =     49261.28908022
  Solvation  Ediel_sol  =         0.00000000
  ---------------------------------------------------
  free energy    TOTEN  =       698.70549116 eV

  energy without entropy =      698.76595295  energy(sigma->0) =      698.72564509


--------------------------------------------------------------------------------------------------------




----------------------------------------- Iteration    1(  21)  ---------------------------------------


    POTLOK:  cpu time    1.3468: real time    1.3481
    SETDIJ:  cpu time    0.0200: real time    0.0198
    EDDIAG:  cpu time    3.1245: real time    3.1251
  RMM-DIIS:  cpu time   21.0798: real time   21.0854
    ORTHCH:  cpu time    0.2730: real time    0.2728
       DOS:  cpu time    0.0010: real time    0.0009
    CHARGE:  cpu time    1.3968: real time    1.3970
    MIXING:  cpu time    0.0400: real time    0.0399
    --------------------------------------------
      LOOP:  cpu time   27.2829: real time   27.2916

 eigenvalue-minimisations  :   985
 total energy-change (2. order) : 0.9405640E-01  (-0.3088400E+00)
 number of electron     461.9999905 magnetization 
 augmentation part       87.0076544 magnetization 

 Broyden mixing:
  rms(total) = 0.20849E+00    rms(broyden)= 0.20844E+00
  rms(prec ) = 0.30468E+00
  weight for this iteration     100.00

 eigenvalues of (default mixing * dielectric matrix)
  average eigenvalue GAMMA=   0.9052
  1.7550  1.7550  1.7197  0.6331  0.6331  0.5476  0.3926  0.3926  0.3185

 Free energy of the ion-electron system (eV)
  ---------------------------------------------------
  alpha Z        PSCENC =       658.81366564
  Ewald energy   TEWEN  =     76983.31229703
  -Hartree energ DENC   =   -118405.89448488
  -exchange      EXHF   =         0.00000000
  -V(xc)+E(xc)   XCENC  =      1885.24632574
  PAW double counting   =     33411.26695331   -32623.17561144
  entropy T*S    EENTRO =        -0.06259400
  eigenvalues    EBANDS =    -10471.99608406
  atomic energy  EATOM  =     49261.28908022
  Solvation  Ediel_sol  =         0.00000000
  ---------------------------------------------------
  free energy    TOTEN  =       698.79954756 eV

  energy without entropy =      698.86214157  energy(sigma->0) =      698.82041223


--------------------------------------------------------------------------------------------------------




----------------------------------------- Iteration    1(  22)  ---------------------------------------


    POTLOK:  cpu time    1.3528: real time    1.3595
    SETDIJ:  cpu time    0.0200: real time    0.0199
    EDDIAG:  cpu time    3.0195: real time    3.0518
  RMM-DIIS:  cpu time   20.8698: real time   20.9171
    ORTHCH:  cpu time    0.2720: real time    0.2720
       DOS:  cpu time    0.0010: real time    0.0009
    CHARGE:  cpu time    1.3398: real time    1.3404
    MIXING:  cpu time    0.0410: real time    0.0414
    --------------------------------------------
      LOOP:  cpu time   26.9169: real time   27.0059

 eigenvalue-minimisations  :   985
 total energy-change (2. order) : 0.2189510E-02  (-0.1488279E+00)
 number of electron     461.9999905 magnetization 
 augmentation part       86.9096394 magnetization 

 Broyden mixing:
  rms(total) = 0.13025E+00    rms(broyden)= 0.13022E+00
  rms(prec ) = 0.18680E+00
  weight for this iteration     100.00

 eigenvalues of (default mixing * dielectric matrix)
  average eigenvalue GAMMA=   0.8715
  1.8096  1.8096  1.6738  0.6556  0.6556  0.4903  0.4903  0.4639  0.3600  0.3062

 Free energy of the ion-electron system (eV)
  ---------------------------------------------------
  alpha Z        PSCENC =       658.81366564
  Ewald energy   TEWEN  =     76983.31229703
  -Hartree energ DENC   =   -118416.50748482
  -exchange      EXHF   =         0.00000000
  -V(xc)+E(xc)   XCENC  =      1885.21739817
  PAW double counting   =     33405.53306655   -32617.24514472
  entropy T*S    EENTRO =        -0.05526470
  eigenvalues    EBANDS =    -10461.55587628
  atomic energy  EATOM  =     49261.28908022
  Solvation  Ediel_sol  =         0.00000000
  ---------------------------------------------------
  free energy    TOTEN  =       698.80173707 eV

  energy without entropy =      698.85700177  energy(sigma->0) =      698.82015864


--------------------------------------------------------------------------------------------------------




----------------------------------------- Iteration    1(  23)  ---------------------------------------


    POTLOK:  cpu time    1.3548: real time    1.3551
    SETDIJ:  cpu time    0.0200: real time    0.0196
    EDDIAG:  cpu time    3.1215: real time    3.1220
  RMM-DIIS:  cpu time   20.8468: real time   20.8505
    ORTHCH:  cpu time    0.2750: real time    0.2748
       DOS:  cpu time    0.0010: real time    0.0009
    CHARGE:  cpu time    1.3138: real time    1.3138
    MIXING:  cpu time    0.0440: real time    0.0442
    --------------------------------------------
      LOOP:  cpu time   26.9789: real time   26.9836

 eigenvalue-minimisations  :   980
 total energy-change (2. order) :-0.7978422E-01  (-0.1209339E+00)
 number of electron     461.9999905 magnetization 
 augmentation part       86.8193375 magnetization 

 Broyden mixing:
  rms(total) = 0.13753E+00    rms(broyden)= 0.13751E+00
  rms(prec ) = 0.18999E+00
  weight for this iteration     100.00

 eigenvalues of (default mixing * dielectric matrix)
  average eigenvalue GAMMA=   0.8824
  1.9421  1.9421  1.7344  0.7869  0.6240  0.6240  0.5301  0.5301  0.3470  0.3470
  0.2989

 Free energy of the ion-electron system (eV)
  ---------------------------------------------------
  alpha Z        PSCENC =       658.81366564
  Ewald energy   TEWEN  =     76983.31229703
  -Hartree energ DENC   =   -118421.27193347
  -exchange      EXHF   =         0.00000000
  -V(xc)+E(xc)   XCENC  =      1885.16054256
  PAW double counting   =     33392.76101345   -32605.82889606
  entropy T*S    EENTRO =        -0.06180564
  eigenvalues    EBANDS =    -10455.45201087
  atomic energy  EATOM  =     49261.28908022
  Solvation  Ediel_sol  =         0.00000000
  ---------------------------------------------------
  free energy    TOTEN  =       698.72195286 eV

  energy without entropy =      698.78375850  energy(sigma->0) =      698.74255474


--------------------------------------------------------------------------------------------------------




----------------------------------------- Iteration    1(  24)  ---------------------------------------


    POTLOK:  cpu time    1.3588: real time    1.3594
    SETDIJ:  cpu time    0.0200: real time    0.0196
    EDDIAG:  cpu time    3.1175: real time    3.1171
  RMM-DIIS:  cpu time   19.2621: real time   19.3468
    ORTHCH:  cpu time    0.2720: real time    0.2723
       DOS:  cpu time    0.0010: real time    0.0009
    CHARGE:  cpu time    1.3058: real time    1.3059
    MIXING:  cpu time    0.0460: real time    0.0458
    --------------------------------------------
      LOOP:  cpu time   25.3841: real time   25.4704

 eigenvalue-minimisations  :   916
 total energy-change (2. order) : 0.2878658E-01  (-0.4143010E-01)
 number of electron     461.9999905 magnetization 
 augmentation part       86.7762789 magnetization 

 Broyden mixing:
  rms(total) = 0.94635E-01    rms(broyden)= 0.94619E-01
  rms(prec ) = 0.12653E+00
  weight for this iteration     100.00

 eigenvalues of (default mixing * dielectric matrix)
  average eigenvalue GAMMA=   0.8690
  2.0108  2.0108  1.6051  0.7238  0.7238  0.7290  0.5677  0.5677  0.4411  0.4411
  0.3038  0.3038

 Free energy of the ion-electron system (eV)
  ---------------------------------------------------
  alpha Z        PSCENC =       658.81366564
  Ewald energy   TEWEN  =     76983.31229703
  -Hartree energ DENC   =   -118434.60602068
  -exchange      EXHF   =         0.00000000
  -V(xc)+E(xc)   XCENC  =      1885.15365417
  PAW double counting   =     33377.98489760   -32591.12189073
  entropy T*S    EENTRO =        -0.06495778
  eigenvalues    EBANDS =    -10442.00998603
  atomic energy  EATOM  =     49261.28908022
  Solvation  Ediel_sol  =         0.00000000
  ---------------------------------------------------
  free energy    TOTEN  =       698.75073944 eV

  energy without entropy =      698.81569722  energy(sigma->0) =      698.77239203


--------------------------------------------------------------------------------------------------------




----------------------------------------- Iteration    1(  25)  ---------------------------------------


    POTLOK:  cpu time    1.3678: real time    1.3683
    SETDIJ:  cpu time    0.0200: real time    0.0194
    EDDIAG:  cpu time    3.1025: real time    3.1026
  RMM-DIIS:  cpu time   19.9660: real time   19.9718
    ORTHCH:  cpu time    0.2730: real time    0.2722
       DOS:  cpu time    0.0010: real time    0.0010
    CHARGE:  cpu time    1.3678: real time    1.3679
    MIXING:  cpu time    0.0500: real time    0.0503
    --------------------------------------------
      LOOP:  cpu time   26.1490: real time   26.1564

 eigenvalue-minimisations  :   950
 total energy-change (2. order) :-0.2775607E-01  (-0.5860671E-01)
 number of electron     461.9999905 magnetization 
 augmentation part       86.7410785 magnetization 

 Broyden mixing:
  rms(total) = 0.57112E-01    rms(broyden)= 0.57098E-01
  rms(prec ) = 0.82119E-01
  weight for this iteration     100.00

 eigenvalues of (default mixing * dielectric matrix)
  average eigenvalue GAMMA=   0.8979
  2.2457  2.2457  1.1628  0.9850  0.9850  0.7980  0.6353  0.6353  0.4942  0.4942
  0.3653  0.3282  0.2982

 Free energy of the ion-electron system (eV)
  ---------------------------------------------------
  alpha Z        PSCENC =       658.81366564
  Ewald energy   TEWEN  =     76983.31229703
  -Hartree energ DENC   =   -118449.43459431
  -exchange      EXHF   =         0.00000000
  -V(xc)+E(xc)   XCENC  =      1885.39071025
  PAW double counting   =     33378.83515101   -32588.67293812
  entropy T*S    EENTRO =        -0.06291673
  eigenvalues    EBANDS =    -10430.74747162
  atomic energy  EATOM  =     49261.28908022
  Solvation  Ediel_sol  =         0.00000000
  ---------------------------------------------------
  free energy    TOTEN  =       698.72298337 eV

  energy without entropy =      698.78590010  energy(sigma->0) =      698.74395561


--------------------------------------------------------------------------------------------------------




----------------------------------------- Iteration    1(  26)  ---------------------------------------


    POTLOK:  cpu time    1.3638: real time    1.3663
    SETDIJ:  cpu time    0.0200: real time    0.0199
    EDDIAG:  cpu time    3.1555: real time    3.1549
  RMM-DIIS:  cpu time   20.4829: real time   20.5695
    ORTHCH:  cpu time    0.2730: real time    0.2729
       DOS:  cpu time    0.0010: real time    0.0009
    CHARGE:  cpu time    1.3148: real time    1.3156
    MIXING:  cpu time    0.0530: real time    0.0524
    --------------------------------------------
      LOOP:  cpu time   26.6649: real time   26.7550

 eigenvalue-minimisations  :   972
 total energy-change (2. order) :-0.8057494E-02  (-0.2205264E-01)
 number of electron     461.9999905 magnetization 
 augmentation part       86.7366917 magnetization 

 Broyden mixing:
  rms(total) = 0.47174E-01    rms(broyden)= 0.47164E-01
  rms(prec ) = 0.73706E-01
  weight for this iteration     100.00

 eigenvalues of (default mixing * dielectric matrix)
  average eigenvalue GAMMA=   0.9256
  2.5114  2.5114  1.2113  1.0066  1.0066  0.8211  0.8211  0.5713  0.5713  0.4678
  0.4678  0.3730  0.3014  0.3172

 Free energy of the ion-electron system (eV)
  ---------------------------------------------------
  alpha Z        PSCENC =       658.81366564
  Ewald energy   TEWEN  =     76983.31229703
  -Hartree energ DENC   =   -118469.67542484
  -exchange      EXHF   =         0.00000000
  -V(xc)+E(xc)   XCENC  =      1885.69043547
  PAW double counting   =     33378.55962856   -32584.92666272
  entropy T*S    EENTRO =        -0.05687458
  eigenvalues    EBANDS =    -10414.29121891
  atomic energy  EATOM  =     49261.28908022
  Solvation  Ediel_sol  =         0.00000000
  ---------------------------------------------------
  free energy    TOTEN  =       698.71492588 eV

  energy without entropy =      698.77180046  energy(sigma->0) =      698.73388407


--------------------------------------------------------------------------------------------------------




----------------------------------------- Iteration    1(  27)  ---------------------------------------


    POTLOK:  cpu time    1.3758: real time    1.3761
    SETDIJ:  cpu time    0.0200: real time    0.0199
    EDDIAG:  cpu time    3.1235: real time    3.1239
  RMM-DIIS:  cpu time   20.0679: real time   20.0710
    ORTHCH:  cpu time    0.2730: real time    0.2723
       DOS:  cpu time    0.0010: real time    0.0009
    CHARGE:  cpu time    1.3108: real time    1.3113
    MIXING:  cpu time    0.0580: real time    0.0575
    --------------------------------------------
      LOOP:  cpu time   26.2310: real time   26.2357

 eigenvalue-minimisations  :   946
 total energy-change (2. order) :-0.1901207E-01  (-0.2260676E-01)
 number of electron     461.9999905 magnetization 
 augmentation part       86.7332499 magnetization 

 Broyden mixing:
  rms(total) = 0.41492E-01    rms(broyden)= 0.41486E-01
  rms(prec ) = 0.63761E-01
  weight for this iteration     100.00

 eigenvalues of (default mixing * dielectric matrix)
  average eigenvalue GAMMA=   0.9500
  2.7199  2.7199  1.4507  1.1120  1.1120  0.6681  0.6681  0.6976  0.6976  0.5436
  0.4687  0.3885  0.3885  0.3144  0.3003

 Free energy of the ion-electron system (eV)
  ---------------------------------------------------
  alpha Z        PSCENC =       658.81366564
  Ewald energy   TEWEN  =     76983.31229703
  -Hartree energ DENC   =   -118481.10557308
  -exchange      EXHF   =         0.00000000
  -V(xc)+E(xc)   XCENC  =      1885.74965693
  PAW double counting   =     33368.70439463   -32575.69310362
  entropy T*S    EENTRO =        -0.05556530
  eigenvalues    EBANDS =    -10402.31893863
  atomic energy  EATOM  =     49261.28908022
  Solvation  Ediel_sol  =         0.00000000
  ---------------------------------------------------
  free energy    TOTEN  =       698.69591380 eV

  energy without entropy =      698.75147911  energy(sigma->0) =      698.71443557


--------------------------------------------------------------------------------------------------------




----------------------------------------- Iteration    1(  28)  ---------------------------------------


    POTLOK:  cpu time    1.3838: real time    1.3839
    SETDIJ:  cpu time    0.0190: real time    0.0194
    EDDIAG:  cpu time    3.1315: real time    3.1324
  RMM-DIIS:  cpu time   20.3519: real time   20.3826
    ORTHCH:  cpu time    0.2730: real time    0.2749
       DOS:  cpu time    0.0010: real time    0.0010
    CHARGE:  cpu time    1.3118: real time    1.3262
    MIXING:  cpu time    0.0620: real time    0.0628
    --------------------------------------------
      LOOP:  cpu time   26.5360: real time   26.5856

 eigenvalue-minimisations  :   961
 total energy-change (2. order) :-0.1405947E-01  (-0.1890856E-01)
 number of electron     461.9999905 magnetization 
 augmentation part       86.7321503 magnetization 

 Broyden mixing:
  rms(total) = 0.25940E-01    rms(broyden)= 0.25932E-01
  rms(prec ) = 0.41374E-01
  weight for this iteration     100.00

 eigenvalues of (default mixing * dielectric matrix)
  average eigenvalue GAMMA=   0.9358
  2.7570  2.7570  1.3480  1.3480  1.2122  0.7283  0.7283  0.6447  0.6447  0.5577
  0.4582  0.4132  0.4132  0.3398  0.3255  0.2971

 Free energy of the ion-electron system (eV)
  ---------------------------------------------------
  alpha Z        PSCENC =       658.81366564
  Ewald energy   TEWEN  =     76983.31229703
  -Hartree energ DENC   =   -118490.74090747
  -exchange      EXHF   =         0.00000000
  -V(xc)+E(xc)   XCENC  =      1885.75167776
  PAW double counting   =     33360.91015994   -32568.73785635
  entropy T*S    EENTRO =        -0.05924204
  eigenvalues    EBANDS =    -10391.85702038
  atomic energy  EATOM  =     49261.28908022
  Solvation  Ediel_sol  =         0.00000000
  ---------------------------------------------------
  free energy    TOTEN  =       698.68185434 eV

  energy without entropy =      698.74109638  energy(sigma->0) =      698.70160169


--------------------------------------------------------------------------------------------------------




----------------------------------------- Iteration    1(  29)  ---------------------------------------


    POTLOK:  cpu time    1.3728: real time    1.3876
    SETDIJ:  cpu time    0.0200: real time    0.0194
    EDDIAG:  cpu time    3.0645: real time    3.0788
  RMM-DIIS:  cpu time   20.0490: real time   20.0508
    ORTHCH:  cpu time    0.2710: real time    0.2718
       DOS:  cpu time    0.0010: real time    0.0009
    CHARGE:  cpu time    1.3018: real time    1.3006
    MIXING:  cpu time    0.0680: real time    0.0677
    --------------------------------------------
      LOOP:  cpu time   26.1510: real time   26.1804

 eigenvalue-minimisations  :   949
 total energy-change (2. order) :-0.1945054E-01  (-0.2065491E-01)
 number of electron     461.9999905 magnetization 
 augmentation part       86.7294821 magnetization 

 Broyden mixing:
  rms(total) = 0.19983E-01    rms(broyden)= 0.19978E-01
  rms(prec ) = 0.31181E-01
  weight for this iteration     100.00

 eigenvalues of (default mixing * dielectric matrix)
  average eigenvalue GAMMA=   0.9327
  3.1873  2.4624  1.5031  1.5031  1.1232  0.7535  0.7535  0.6162  0.6162  0.6047
  0.5116  0.5116  0.4011  0.3776  0.3370  0.2971  0.2971

 Free energy of the ion-electron system (eV)
  ---------------------------------------------------
  alpha Z        PSCENC =       658.81366564
  Ewald energy   TEWEN  =     76983.31229703
  -Hartree energ DENC   =   -118496.49758875
  -exchange      EXHF   =         0.00000000
  -V(xc)+E(xc)   XCENC  =      1885.79735886
  PAW double counting   =     33358.77752153   -32566.40451187
  entropy T*S    EENTRO =        -0.05730523
  eigenvalues    EBANDS =    -10386.36811363
[...]
    178      -3.8616      2.00000
    179      -3.8337      2.00000
    180      -3.7339      2.00000
    181      -3.6857      2.00000
    182      -3.6780      2.00000
    183      -3.6553      2.00000
    184      -3.6446      2.00000
    185      -3.6007      2.00000
    186      -3.5830      2.00000
    187      -3.5795      2.00000
    188      -3.5754      2.00000
    189      -3.5650      2.00000
    190      -3.5488      2.00000
    191      -3.5089      2.00000
    192      -3.4759      2.00000
    193      -3.4679      2.00000
    194      -3.4549      2.00000
    195      -3.4476      2.00000
    196      -3.3959      2.00000
    197      -3.3810      2.00000
    198      -3.3611      2.00000
    199      -3.3362      2.00000
    200      -3.3342      2.00000
    201      -3.2168      2.00000
    202      -3.1390      2.00000
    203      -3.1287      2.00000
    204      -3.1098      2.00000
    205      -3.0964      2.00000
    206      -3.0845      2.00000
    207      -3.0736      2.00000
    208      -3.0616      2.00000
    209      -3.0510      2.00000
    210      -2.9509      2.00000
    211      -2.9176      2.00000
    212      -2.8776      2.00000
    213      -2.8668      2.00000
    214      -2.8327      2.00001
    215      -2.8217      2.00001
    216      -2.7619      2.00009
    217      -2.6741      2.00099
    218      -2.6090      2.00428
    219      -2.5817      2.00736
    220      -2.5703      2.00910
    221      -2.5584      2.01127
    222      -2.5515      2.01269
    223      -2.5356      2.01651
    224      -2.5114      2.02386
    225      -2.5036      2.02660
    226      -2.4936      2.03044
    227      -2.4767      2.03751
    228      -2.4346      2.05664
    229      -2.1990      1.49307
    230      -2.1912      1.43581
    231      -2.1525      1.12538
    232      -2.1323      0.95513
    233      -2.0936      0.63725
    234      -2.0585      0.38505
    235      -1.9329     -0.05484
    236      -1.9025     -0.07011
    237      -1.8867     -0.07065
    238      -1.8673     -0.06676
    239      -1.6389     -0.00238
    240      -1.6267     -0.00181
    241      -1.6047     -0.00108
    242      -1.5795     -0.00057
    243      -1.5687     -0.00043
    244      -1.5518     -0.00028
    245      -1.5123     -0.00009
    246      -1.4953     -0.00005
    247      -1.4274     -0.00001
    248      -1.3894      0.00000
    249      -1.3466      0.00000
    250      -1.3402      0.00000
    251      -1.3228      0.00000
    252      -1.2720      0.00000
    253      -1.2172      0.00000
    254      -1.2074      0.00000
    255      -1.2002      0.00000
    256      -1.1782      0.00000
    257      -1.1296      0.00000
    258      -1.1164      0.00000
    259      -1.0298      0.00000
    260      -1.0082      0.00000
    261      -1.0060      0.00000
    262      -0.9967      0.00000
    263      -0.9553      0.00000
    264      -0.9493      0.00000
    265      -0.9286      0.00000
    266      -0.9249      0.00000
    267      -0.9156      0.00000
    268      -0.9043      0.00000
    269      -0.8989      0.00000
    270      -0.8264      0.00000
    271      -0.7455      0.00000
    272      -0.7280      0.00000
    273      -0.7204      0.00000
    274      -0.7065      0.00000
    275      -0.6691      0.00000
    276      -0.6521      0.00000
    277      45.0239      0.00000
    278      48.3945      0.00000


--------------------------------------------------------------------------------------------------------


 soft charge-density along one line, spin component           1
         0         1         2         3         4         5         6         7         8         9
 total charge-density along one line
 
 pseudopotential strength for first ion, spin component:           1
-33.678 -22.540  -0.010  -0.018   0.057  -0.001   0.000  -0.010
-22.540 -16.884  -0.015  -0.019  -0.003   0.001   0.002  -0.004
 -0.010  -0.015 -28.264   0.006   0.008   0.361   0.000   0.000
 -0.018  -0.019   0.006 -28.191  -0.008   0.000   0.360   0.000
  0.057  -0.003   0.008  -0.008 -28.280   0.000   0.000   0.361
 -0.001   0.001   0.361   0.000   0.000  -0.533   0.000   0.000
  0.000   0.002   0.000   0.360   0.000   0.000  -0.533   0.000
 -0.010  -0.004   0.000   0.000   0.361   0.000   0.000  -0.533
  0.005   0.005   0.016   0.001  -0.006  -0.003   0.000   0.000
  0.004   0.004  -0.008  -0.009   0.001   0.000   0.000   0.000
  0.033   0.030   0.001  -0.011  -0.006   0.000   0.000   0.002
 -0.005  -0.004   0.001   0.021  -0.009   0.000  -0.003   0.000
 -0.005  -0.006   0.005   0.000   0.015   0.000   0.000  -0.003
  0.000   0.000   0.000   0.000   0.000   0.000   0.000   0.000
  0.000   0.000  -0.001  -0.001   0.000   0.000   0.000   0.000
  0.002   0.001   0.000  -0.001   0.000   0.000   0.000   0.000
  0.000   0.000   0.000   0.001  -0.001   0.000   0.000   0.000
  0.000   0.000   0.000   0.000   0.000   0.000   0.000   0.000
 total augmentation occupancy for first ion, spin component:           1
  2.291  -1.496  -0.009  -0.004  -0.073   0.019   0.016   0.253   0.004  -0.003  -0.128   0.024  -0.003  -0.021  -0.030  -0.003
 -1.496   2.544   0.017   0.011   0.124  -0.025  -0.010  -0.433  -0.009   0.008   0.227  -0.048   0.008   0.061   0.000  -0.104
 -0.009   0.017   2.025  -0.001  -0.001  -0.179   0.005   0.003   0.071  -0.008   0.004  -0.005   0.003  -0.007   0.007  -0.012
 -0.004   0.011  -0.001   2.018   0.002   0.004  -0.152  -0.008  -0.003   0.013   0.000   0.052   0.004   0.002  -0.011   0.003
 -0.073   0.124  -0.001   0.002   2.021   0.004  -0.007  -0.155   0.006  -0.001  -0.043  -0.002   0.064   0.001   0.001   0.015
  0.019  -0.025  -0.179   0.004   0.004   0.322  -0.004  -0.028  -0.277   0.047  -0.012   0.019  -0.020   0.241  -0.041   0.022
  0.016  -0.010   0.005  -0.152  -0.007  -0.004   0.283   0.013   0.009  -0.018   0.026  -0.223  -0.015  -0.004  -0.004  -0.033
  0.253  -0.433   0.003  -0.008  -0.155  -0.028   0.013   0.269  -0.007   0.001   0.151   0.027  -0.244  -0.036  -0.003  -0.122
  0.004  -0.009   0.071  -0.003   0.006  -0.277   0.009  -0.007   0.670  -0.006  -0.036   0.039   0.039  -0.455   0.021  -0.050
 -0.003   0.008  -0.008   0.013  -0.001   0.047  -0.018   0.001  -0.006   0.777  -0.009  -0.017  -0.021   0.021  -0.525   0.003
 -0.128   0.227   0.004   0.000  -0.043  -0.012   0.026   0.151  -0.036  -0.009   0.844  -0.016   0.017  -0.052   0.004  -0.579
  0.024  -0.048  -0.005   0.052  -0.002   0.019  -0.223   0.027   0.039  -0.017  -0.016   0.875  -0.054  -0.010  -0.004  -0.004
 -0.003   0.008   0.003   0.004   0.064  -0.020  -0.015  -0.244   0.039  -0.021   0.017  -0.054   0.595   0.001   0.032   0.011
 -0.021   0.061  -0.007   0.002   0.001   0.241  -0.004  -0.036  -0.455   0.021  -0.052  -0.010   0.001   0.391  -0.041   0.049
 -0.030   0.000   0.007  -0.011   0.001  -0.041  -0.004  -0.003   0.021  -0.525   0.004  -0.004   0.032  -0.041   0.464   0.030
 -0.003  -0.104  -0.012   0.003   0.015   0.022  -0.033  -0.122  -0.050   0.003  -0.579  -0.004   0.011   0.049   0.030   0.517
  0.048  -0.001   0.003   0.013   0.003  -0.008   0.205  -0.022  -0.012  -0.004  -0.007  -0.568   0.032   0.025  -0.049  -0.034
  0.001  -0.012  -0.010  -0.002  -0.009   0.012   0.008   0.183   0.000   0.031   0.010   0.030  -0.415  -0.018  -0.026  -0.028


------------------------ aborting loop because EDIFF is reached ----------------------------------------


    CHARGE:  cpu time    1.2258: real time    1.2256
    FORLOC:  cpu time    0.1780: real time    0.1784
    FORNL :  cpu time    4.0424: real time    4.0422
    FORCOR:  cpu time    1.4778: real time    1.4775
    FORHAR:  cpu time    0.4839: real time    0.4842
    MIXING:  cpu time    0.0290: real time    0.0291
    OFIELD:  cpu time    0.0000: real time    0.0000

 VOLUME and BASIS-vectors are now :
 -----------------------------------------------------------------------------
  energy-cutoff  :      274.00
  volume of cell :     5832.00
      direct lattice vectors                 reciprocal lattice vectors
    18.000000000  0.000000000  0.000000000     0.055555556  0.000000000  0.000000000
     0.000000000 18.000000000  0.000000000     0.000000000  0.055555556  0.000000000
     0.000000000  0.000000000 18.000000000     0.000000000  0.000000000  0.055555556

  length of vectors
    18.000000000 18.000000000 18.000000000     0.055555556  0.055555556  0.055555556


 FORCES acting on ions
    electron-ion (+dipol)            ewald-force                    non-local-force                 convergence-correction
 -----------------------------------------------------------------------------------------------
   -.162E+04 -.565E+03 0.187E+02   0.161E+04 0.563E+03 -.206E+02   0.734E+01 0.232E+01 0.194E+01   0.487E-02 0.101E-01 0.125E-01
   -.570E+03 -.162E+04 -.590E+01   0.568E+03 0.161E+04 0.639E+01   0.227E+01 0.757E+01 -.511E+00   0.747E-03 0.696E-02 0.179E-01
   0.162E+04 -.571E+03 0.367E+01   -.161E+04 0.569E+03 -.377E+01   -.771E+01 0.216E+01 0.860E-01   0.424E-02 0.416E-02 0.155E-01
   0.575E+03 -.162E+04 0.200E+02   -.573E+03 0.161E+04 -.215E+02   -.244E+01 0.736E+01 0.142E+01   0.101E-01 0.427E-02 0.122E-01
   0.163E+04 0.567E+03 0.247E+02   -.163E+04 -.565E+03 -.261E+02   -.739E+01 -.237E+01 0.143E+01   0.762E-03 -.143E-01 0.114E-01
   0.576E+03 0.163E+04 0.103E+02   -.574E+03 -.162E+04 -.102E+02   -.243E+01 -.743E+01 -.704E-01   0.633E-02 -.603E-02 0.559E-02
   -.162E+04 0.572E+03 0.187E+00   0.161E+04 -.570E+03 0.761E-01   0.765E+01 -.228E+01 -.271E+00   -.876E-02 -.180E-01 0.553E-02
   -.571E+03 0.162E+04 0.316E+02   0.569E+03 -.161E+04 -.334E+02   0.244E+01 -.725E+01 0.179E+01   -.158E-01 -.709E-02 0.509E-02
   -.141E+04 0.211E+02 -.822E+03   0.141E+04 -.207E+02 0.819E+03   0.518E+01 -.382E+00 0.264E+01   -.111E-01 0.386E-02 0.181E-01
   0.142E+04 -.194E+02 -.820E+03   -.141E+04 0.189E+02 0.817E+03   -.523E+01 0.450E+00 0.267E+01   0.113E-01 -.343E-02 0.161E-01
   -.153E+02 -.142E+04 -.820E+03   0.150E+02 0.141E+04 0.817E+03   0.275E+00 0.526E+01 0.268E+01   0.659E-03 -.580E-02 0.173E-01
   0.921E+01 0.142E+04 -.813E+03   -.914E+01 -.142E+04 0.811E+03   -.756E-01 -.525E+01 0.272E+01   0.889E-03 0.105E-01 0.102E-01
   -.104E+04 -.103E+04 -.102E+04   0.104E+04 0.103E+04 0.102E+04   0.479E+01 0.335E+01 0.282E+01   -.404E-02 0.702E-02 0.946E-02
   0.104E+04 -.105E+04 -.101E+04   -.103E+04 0.104E+04 0.101E+04   -.324E+01 0.423E+01 0.327E+01   0.138E-01 -.701E-02 0.162E-01
   0.105E+04 0.104E+04 -.102E+04   -.105E+04 -.104E+04 0.102E+04   -.445E+01 -.360E+01 0.267E+01   0.111E-02 -.302E-02 0.127E-02
   -.103E+04 0.105E+04 -.101E+04   0.103E+04 -.105E+04 0.101E+04   0.305E+01 -.458E+01 0.303E+01   -.112E-01 0.419E-02 0.114E-01
   -.140E+04 -.197E+02 0.854E+03   0.140E+04 0.194E+02 -.851E+03   0.536E+01 0.371E+00 -.282E+01   0.422E-02 -.890E-03 0.113E-01
   0.140E+04 0.540E-01 0.863E+03   -.139E+04 0.204E-02 -.860E+03   -.531E+01 -.533E-01 -.285E+01   -.579E-02 -.461E-02 0.149E-01
   0.169E+02 -.140E+04 0.846E+03   -.165E+02 0.140E+04 -.843E+03   -.335E+00 0.538E+01 -.273E+01   0.399E-02 0.121E-01 0.146E-01
   -.272E+02 0.141E+04 0.859E+03   0.267E+02 -.140E+04 -.857E+03   0.491E+00 -.543E+01 -.286E+01   0.143E-02 -.707E-02 0.136E-01
   -.104E+04 -.104E+04 0.103E+04   0.103E+04 0.103E+04 -.102E+04   0.304E+01 0.409E+01 -.476E+01   0.101E-01 0.108E-01 0.124E-01
   0.104E+04 -.103E+04 0.103E+04   -.104E+04 0.103E+04 -.102E+04   -.337E+01 0.283E+01 -.548E+01   0.140E-03 0.104E-01 0.846E-02
   0.104E+04 0.104E+04 0.105E+04   -.103E+04 -.104E+04 -.104E+04   -.320E+01 -.389E+01 -.471E+01   -.102E-02 -.217E-01 0.682E-02
   -.104E+04 0.103E+04 0.103E+04   0.104E+04 -.103E+04 -.103E+04   0.355E+01 -.285E+01 -.529E+01   -.869E-02 -.143E-01 0.210E-02
   -.640E+03 -.638E+03 -.156E+04   0.638E+03 0.636E+03 0.155E+04   0.124E+01 0.133E+01 0.717E+01   -.121E-01 -.163E-02 0.127E-02
   0.640E+03 -.642E+03 -.156E+04   -.638E+03 0.640E+03 0.155E+04   -.144E+01 0.142E+01 0.706E+01   0.857E-02 0.498E-02 0.275E-02
   0.647E+03 0.643E+03 -.156E+04   -.646E+03 -.641E+03 0.156E+04   -.126E+01 -.132E+01 0.689E+01   0.954E-02 0.849E-02 -.292E-02
   -.636E+03 0.650E+03 -.156E+04   0.634E+03 -.648E+03 0.155E+04   0.139E+01 -.149E+01 0.710E+01   -.431E-02 0.433E-02 -.881E-06
   -.514E+03 -.520E+03 0.163E+04   0.512E+03 0.517E+03 -.163E+04   0.264E+01 0.278E+01 -.607E+01   0.275E-02 0.637E-02 0.281E-03
   0.515E+03 -.514E+03 0.164E+04   -.511E+03 0.511E+03 -.163E+04   -.335E+01 0.314E+01 -.610E+01   0.487E-02 0.153E-01 -.383E-02
   0.508E+03 0.515E+03 0.165E+04   -.505E+03 -.512E+03 -.164E+04   -.260E+01 -.266E+01 -.594E+01   0.297E-02 -.166E-01 0.113E-02
   -.521E+03 0.508E+03 0.164E+04   0.518E+03 -.505E+03 -.163E+04   0.317E+01 -.300E+01 -.609E+01   0.227E-02 -.181E-01 -.538E-02
   -.515E+01 -.431E+01 -.666E+03   0.495E+01 0.411E+01 0.664E+03   0.202E+00 0.199E+00 0.224E+01   -.114E-02 0.126E-02 0.182E-01
   0.552E+03 0.555E+03 0.416E+02   -.553E+03 -.555E+03 -.419E+02   0.915E+00 0.918E+00 0.251E+00   0.626E-02 -.514E-02 0.294E-01
   0.548E+03 -.573E+03 0.383E+02   -.550E+03 0.574E+03 -.386E+02   0.124E+01 -.134E+01 0.188E+00   0.578E-02 0.152E-02 0.245E-01
   -.849E+01 -.781E+01 0.877E+03   0.830E+01 0.772E+01 -.875E+03   0.185E+00 0.981E-01 -.241E+01   0.275E-02 -.174E-02 0.274E-01
   -.558E+03 -.557E+03 0.340E+02   0.559E+03 0.558E+03 -.342E+02   -.120E+01 -.121E+01 0.196E+00   -.497E-02 0.366E-02 0.220E-01
   -.566E+03 0.556E+03 0.400E+02   0.568E+03 -.558E+03 -.402E+02   -.136E+01 0.120E+01 0.239E+00   -.856E-02 -.557E-02 0.180E-01
   0.208E+01 0.182E+01 -.986E+03   -.225E+01 -.187E+01 0.100E+04   0.176E+00 0.505E-01 -.170E+02   0.181E-03 0.100E-02 -.372E-02
 -----------------------------------------------------------------------------------------------
   -.215E+00 -.947E-01 0.150E+02   0.133E-11 0.487E-12 0.125E-11   0.194E+00 0.122E+00 -.155E+02   0.229E-01 -.307E-01 0.399E+00
 
 
 POSITION                                       TOTAL-FORCE (eV/Angst)
 -----------------------------------------------------------------------------------
     13.46009     11.29301      9.08401         0.001603     -0.000933     -0.000281
     11.31188     13.45462      9.00337        -0.001798      0.001017      0.001280
      4.54698     11.26968      9.01617         0.001461     -0.000123      0.001011
      6.68054     13.44225      9.05528         0.000726     -0.000940      0.000190
      4.54327      6.70899      9.04089         0.001019      0.000079      0.000677
      6.67405      4.55453      8.99548         0.001697      0.000148     -0.001871
     13.45200      6.70514      9.00518         0.000084      0.002136     -0.001562
     11.30067      4.55255      9.05786        -0.002278      0.000736     -0.001588
     12.39909      8.97143     10.76729         0.000544      0.000793      0.000019
      5.61306      8.98825     10.72454         0.001696     -0.001324      0.000043
      9.03236     12.40221     10.75915         0.000841      0.001359      0.002923
      8.94005      5.60531     10.72282        -0.000694     -0.001421     -0.000163
     12.22130     12.10961     11.16344         0.001182      0.003639      0.002781
      5.88177     12.18953     11.15948        -0.000754     -0.001629     -0.000261
      5.78134      5.85771     11.13257        -0.001747     -0.000332      0.000512
     12.09846      5.77928     11.15307        -0.001372      0.000542     -0.001293
     12.46478      9.03337      7.28022         0.000096      0.000125      0.000217
      5.56278      8.95814      7.29253         0.000797     -0.001751      0.000348
      9.00147     12.46568      7.27058         0.000134      0.001008     -0.000090
      8.97915      5.55976      7.28965        -0.001962      0.000068     -0.000973
     12.10538     12.19499      6.84909         0.001530     -0.000034     -0.000846
      5.83993     12.09577      6.82964         0.000926      0.000623      0.000507
      5.88157      5.82848      6.82847        -0.000222     -0.001952      0.000666
     12.17328      5.92171      6.83044        -0.000077     -0.003166     -0.000742
     10.55617     10.52378     12.51515         0.000799      0.001517      0.000181
      7.44606     10.55169     12.50587        -0.000537     -0.001565     -0.000798
      7.42795      7.44810     12.49312        -0.001867      0.000625     -0.002569
     10.54054      7.42273     12.51160         0.000752     -0.001882     -0.002525
     10.53017     10.58509      5.59202         0.001507     -0.000371      0.002520
      7.43098     10.56708      5.57121         0.000484     -0.001206      0.002851
      7.46616      7.43968      5.59036         0.000377     -0.001080      0.000484
     10.58365      7.46601      5.57803        -0.000665     -0.000231      0.001234
      8.98764      8.98502     10.77291        -0.000476      0.000058     -0.002154
      7.41069      7.41259      8.98087         0.000732      0.001004     -0.001345
      7.42143     10.58764      8.99518        -0.000170      0.000379     -0.001016
      8.99456      8.99395      7.17276        -0.001204      0.001617     -0.001402
     10.59201     10.58658      9.00113         0.000770      0.001177      0.000975
     10.58221      7.41478      8.99427        -0.001855      0.000675      0.000186
      8.99453      8.98327     13.16630        -0.002077      0.000614      0.001873
 -----------------------------------------------------------------------------------
    total drift:                                0.002177     -0.003302     -0.030643


--------------------------------------------------------------------------------------------------------



  FREE ENERGIE OF THE ION-ELECTRON SYSTEM (eV)
  ---------------------------------------------------
  free  energy   TOTEN  =       695.42461347 eV

  energy  without entropy=      695.50507030  energy(sigma->0) =      695.45143241
 
 d Force = 0.4526278E-05[ 0.813E-06, 0.824E-05]  d Energy = 0.6747243E-04-0.629E-04
 d Force = 0.1453047E+00[ 0.145E+00, 0.145E+00]  d Ewald  = 0.1453047E+00-0.829E-09


--------------------------------------------------------------------------------------------------------


    POTLOK:  cpu time    1.4628: real time    1.4631


--------------------------------------------------------------------------------------------------------


 stress matrix after NEB project (eV)
      0.00000      0.00000      0.00000
      0.00000      0.00000      0.00000
      0.00000      0.00000      0.00000
  FORCES: max atom, RMS     0.004730    0.002256
  FORCE total and by dimension    0.014088    0.003639
  Stress total and by dimension    0.000000    0.000000


--------------------------------------------------------------------------------------------------------


  
 reached required accuracy - stopping structural energy minimisation
     LOOP+:  cpu time   40.9728: real time   41.0008
    4ORBIT:  cpu time    0.0000: real time    0.0000

 total amount of memory used by VASP on root node   103973. kBytes
========================================================================

   base      :      30000. kBytes
   nonlr-proj:       2752. kBytes
   fftplans  :      20116. kBytes
   grid      :      34073. kBytes
   one-center:         77. kBytes
   wavefun   :      16955. kBytes
 
  
  
 General timing and accounting informations for this job:
 ========================================================
  
                  Total CPU time used (sec):    17551.928
                            User time (sec):    17500.431
                          System time (sec):       51.498
                         Elapsed time (sec):    17576.441
  
                   Maximum memory used (kb):      162220.
                   Average memory used (kb):           0.
  
                          Minor page faults:      5437886
                          Major page faults:           25
                 Voluntary context switches:        11334
