<?xml version="1.0" encoding="ISO-8859-1"?>
<modeling>
 <generator>
  <i name="program" type="string">vasp </i>
  <i name="version" type="string">5.4.1  </i>
  <i name="subversion" type="string">24Jun15 (build Jan 06 2016 13:19:48) gamma-only                       parallel </i>
  <i name="platform" type="string">IFC91_ompi </i>
  <i name="date" type="string">2016 02 26 </i>
  <i name="time" type="string">16:37:19 </i>
 </generator>
 <incar>
  <i type="string" name="SYSTEM"> Pt cube particle</i>
  <i type="string" name="PREC">normal</i>
  <i type="int" name="IALGO">    48</i>
  <i type="int" name="IBRION">     2</i>
  <i name="EDIFF">      0.00010000</i>
  <i name="EDIFFG">     -0.00500000</i>
  <i type="int" name="NSW">   200</i>
  <i type="int" name="ISIF">     0</i>
  <i type="int" name="ISYM">     0</i>
  <i name="ENMAX">    274.00000000</i>
  <i name="POTIM">      0.10000000</i>
  <i type="string" name="LREAL">Auto</i>
  <i type="logical" name="LPLANE"> T  </i>
  <i type="logical" name="LWAVE"> F  </i>
  <i type="logical" name="LCHARG"> F  </i>
  <v type="int" name="KPOINT_BSE">    -1     0     0     0</v>
 </incar>
 <kpoints>
  <generation param="Monkhorst-Pack">
   <v type="int" name="divisions">       1        1        1 </v>
   <v name="usershift">      0.00000000       0.00000000       0.00000000 </v>
   <v name="genvec1">      1.00000000       0.00000000       0.00000000 </v>
   <v name="genvec2">      0.00000000       1.00000000       0.00000000 </v>
   <v name="genvec3">      0.00000000       0.00000000       1.00000000 </v>
   <v name="shift">      0.00000000       0.00000000       0.00000000 </v>
  </generation>
  <varray name="kpointlist" >
   <v>       0.00000000       0.00000000       0.00000000 </v>
  </varray>
  <varray name="weights" >
   <v>       1.00000000 </v>
  </varray>
 </kpoints>
 <parameters>
  <separator name="general" >
   <i type="string" name="SYSTEM">Pt cube particle</i>
   <i type="logical" name="LCOMPAT"> F  </i>
  </separator>
  <separator name="electronic" >
   <i type="string" name="PREC">normal</i>
   <i name="ENMAX">    274.00000000</i>
   <i name="ENAUG">    412.35200000</i>
   <i name="EDIFF">      0.00010000</i>
   <i type="int" name="IALGO">    48</i>
   <i type="int" name="IWAVPR">    11</i>
   <i type="int" name="NBANDS">   278</i>
   <i name="NELECT">    462.00000000</i>
   <i type="int" name="TURBO">     0</i>
   <i type="int" name="IRESTART">     0</i>
   <i type="int" name="NREBOOT">     0</i>
   <i type="int" name="NMIN">     0</i>
   <i name="EREF">      0.00000000</i>
   <separator name="electronic smearing" >
    <i type="int" name="ISMEAR">     1</i>
    <i name="SIGMA">      0.20000000</i>
    <i name="KSPACING">      0.50000000</i>
    <i type="logical" name="KGAMMA"> T  </i>
   </separator>
   <separator name="electronic projectors" >
    <i type="logical" name="LREAL"> T  </i>
    <v name="ROPT">     -0.00050000     -0.00050000</v>
    <i type="int" name="LMAXPAW">  -100</i>
    <i type="int" name="LMAXMIX">     2</i>
    <i type="logical" name="NLSPLINE"> F  </i>
   </separator>
   <separator name="electronic startup" >
    <i type="int" name="ISTART">     0</i>
    <i type="int" name="ICHARG">     2</i>
    <i type="int" name="INIWAV">     1</i>
   </separator>
   <separator name="electronic spin" >
    <i type="int" name="ISPIN">     1</i>
    <i type="logical" name="LNONCOLLINEAR"> F  </i>
    <v name="MAGMOM">      1.00000000      1.00000000      1.00000000      1.00000000      1.00000000      1.00000000      1.00000000      1.00000000      1.00000000      1.00000000      1.00000000      1.00000000      1.00000000      1.00000000      1.00000000      1.00000000      1.00000000      1.00000000      1.00000000      1.00000000
      1.00000000      1.00000000      1.00000000      1.00000000      1.00000000      1.00000000      1.00000000      1.00000000      1.00000000      1.00000000      1.00000000      1.00000000      1.00000000      1.00000000      1.00000000      1.00000000      1.00000000      1.00000000      1.00000000</v>
    <i name="NUPDOWN">     -1.00000000</i>
    <i type="logical" name="LSORBIT"> F  </i>
    <v name="SAXIS">      0.00000000      0.00000000      1.00000000</v>
    <i type="logical" name="LSPIRAL"> F  </i>
    <v name="QSPIRAL">      0.00000000      0.00000000      0.00000000</v>
    <i type="logical" name="LZEROZ"> F  </i>
   </separator>
   <separator name="electronic exchange-correlation" >
    <i type="logical" name="LASPH"> F  </i>
    <i type="logical" name="LMETAGGA"> F  </i>
   </separator>
   <separator name="electronic convergence" >
    <i type="int" name="NELM">    60</i>
    <i type="int" name="NELMDL">   -12</i>
    <i type="int" name="NELMIN">     2</i>
    <i name="ENINI">    274.00000000</i>
    <separator name="electronic convergence detail" >
     <i type="logical" name="LDIAG"> T  </i>
     <i type="logical" name="LSUBROT"> F  </i>
     <i name="WEIMIN">      0.00100000</i>
     <i name="EBREAK">      0.00000009</i>
     <i name="DEPER">      0.30000000</i>
     <i type="int" name="NRMM">     4</i>
     <i name="TIME">      0.40000000</i>
    </separator>
   </separator>
   <separator name="electronic mixer" >
    <i name="AMIX">      0.40000000</i>
    <i name="BMIX">      1.00000000</i>
    <i name="AMIN">      0.10000000</i>
    <i name="AMIX_MAG">      1.60000000</i>
    <i name="BMIX_MAG">      1.00000000</i>
    <separator name="electronic mixer details" >
     <i type="int" name="IMIX">     4</i>
     <i type="logical" name="MIXFIRST"> F  </i>
     <i type="int" name="MAXMIX">   -45</i>
     <i name="WC">    100.00000000</i>
     <i type="int" name="INIMIX">     1</i>
     <i type="int" name="MIXPRE">     1</i>
     <i type="int" name="MREMOVE">     5</i>
    </separator>
   </separator>
   <separator name="electronic dipolcorrection" >
    <i type="logical" name="LDIPOL"> F  </i>
    <i type="logical" name="LMONO"> F  </i>
    <i type="int" name="IDIPOL">     0</i>
    <i name="EPSILON">      1.00000000</i>
    <v name="DIPOL">   -100.00000000   -100.00000000   -100.00000000</v>
    <i name="EFIELD">      0.00000000</i>
   </separator>
  </separator>
  <separator name="grids" >
   <i type="int" name="NGX">    80</i>
   <i type="int" name="NGY">    80</i>
   <i type="int" name="NGZ">    80</i>
   <i type="int" name="NGXF">   160</i>
   <i type="int" name="NGYF">   160</i>
   <i type="int" name="NGZF">   160</i>
   <i type="logical" name="ADDGRID"> F  </i>
  </separator>
  <separator name="ionic" >
   <i type="int" name="NSW">   200</i>
   <i type="int" name="IBRION">     2</i>
   <i type="int" name="ISIF">     0</i>
   <i name="PSTRESS">      0.00000000</i>
   <i name="EDIFFG">     -0.00500000</i>
   <i type="int" name="NFREE">     1</i>
   <i name="POTIM">      0.10000000</i>
   <i name="SMASS">     -3.00000000</i>
   <i name="SCALEE">      1.00000000</i>
  </separator>
  <separator name="ionic md" >
   <i name="TEBEG">      0.00010000</i>
   <i name="TEEND">      0.00010000</i>
   <i type="int" name="NBLOCK">     1</i>
   <i type="int" name="KBLOCK">   200</i>
   <i type="int" name="NPACO">   256</i>
   <i name="APACO">     16.00000000</i>
  </separator>
  <separator name="symmetry" >
   <i type="int" name="ISYM">     0</i>
   <i name="SYMPREC">      0.00001000</i>
  </separator>
  <separator name="dos" >
   <i type="logical" name="LORBIT"> F  </i>
   <v name="RWIGS">     -1.00000000     -1.00000000</v>
   <i type="int" name="NEDOS">   301</i>
   <i name="EMIN">     10.00000000</i>
   <i name="EMAX">    -10.00000000</i>
   <i name="EFERMI">      0.00000000</i>
  </separator>
  <separator name="writing" >
   <i type="int" name="NWRITE">     2</i>
   <i type="logical" name="LWAVE"> F  </i>
   <i type="logical" name="LCHARG"> F  </i>
   <i type="logical" name="LPARD"> F  </i>
   <i type="logical" name="LVTOT"> F  </i>
   <i type="logical" name="LVHAR"> F  </i>
   <i type="logical" name="LELF"> F  </i>
   <i type="logical" name="LOPTICS"> F  </i>
   <v name="STM">      0.00000000      0.00000000      0.00000000      0.00000000      0.00000000      0.00000000      0.00000000</v>
  </separator>
  <separator name="performance" >
   <i type="int" name="NPAR">     2</i>
   <i type="int" name="NSIM">     4</i>
   <i type="int" name="NBLK">    -1</i>
   <i type="logical" name="LPLANE"> T  </i>
   <i type="logical" name="LSCALAPACK"> T  </i>
   <i type="logical" name="LSCAAWARE"> F  </i>
   <i type="logical" name="LSCALU"> F  </i>
   <i type="logical" name="LASYNC"> F  </i>
   <i type="logical" name="LORBITALREAL"> F  </i>
  </separator>
  <separator name="miscellaneous" >
   <i type="int" name="IDIOT">     3</i>
   <i type="logical" name="LMUSIC"> F  </i>
   <v name="POMASS">     91.22400000     16.00000000</v>
   <v name="DARWINR">      0.00000000      0.00000000</v>
   <v name="DARWINV">      1.00000000      1.00000000</v>
   <i type="logical" name="LCORR"> T  </i>
  </separator>
  <i type="logical" name="GGA_COMPAT"> T  </i>
  <i type="logical" name="LBERRY"> F  </i>
  <i type="int" name="ICORELEVEL">     0</i>
  <i type="logical" name="LDAU"> F  </i>
  <i type="int" name="I_CONSTRAINED_M">     0</i>
  <separator name="electronic exchange-correlation" >
   <i type="string" name="GGA">--</i>
   <i type="int" name="VOSKOWN">     0</i>
   <i type="logical" name="LHFCALC"> F  </i>
   <i type="string" name="PRECFOCK"></i>
   <i type="logical" name="LSYMGRAD"> F  </i>
   <i type="logical" name="LHFONE"> F  </i>
   <i type="logical" name="LRHFCALC"> F  </i>
   <i type="logical" name="LTHOMAS"> F  </i>
   <i type="logical" name="LMODELHF"> F  </i>
   <i name="ENCUT4O">     -1.00000000</i>
   <i type="int" name="EXXOEP">     0</i>
   <i type="int" name="FOURORBIT">     0</i>
   <i name="AEXX">      0.00000000</i>
   <i name="HFALPHA">      0.00000000</i>
   <i name="MCALPHA">      0.00000000</i>
   <i name="ALDAX">      1.00000000</i>
   <i name="AGGAX">      1.00000000</i>
   <i name="ALDAC">      1.00000000</i>
   <i name="AGGAC">      1.00000000</i>
   <i type="int" name="NKREDX">     1</i>
   <i type="int" name="NKREDY">     1</i>
   <i type="int" name="NKREDZ">     1</i>
   <i type="logical" name="SHIFTRED"> F  </i>
   <i type="logical" name="ODDONLY"> F  </i>
   <i type="logical" name="EVENONLY"> F  </i>
   <i type="int" name="LMAXFOCK">     0</i>
   <i type="int" name="NMAXFOCKAE">     0</i>
   <i type="logical" name="LFOCKAEDFT"> F  </i>
   <i name="HFSCREEN">      0.00000000</i>
   <i name="HFSCREENC">      0.00000000</i>
   <i type="int" name="NBANDSGWLOW">     0</i>
  </separator>
  <separator name="vdW DFT" >
   <i type="logical" name="LUSE_VDW"> F  </i>
   <i name="Zab_VDW">     -0.84910000</i>
   <i name="PARAM1">      0.12340000</i>
   <i name="PARAM2">      1.00000000</i>
   <i name="PARAM3">      0.00000000</i>
  </separator>
  <separator name="model GW" >
   <i type="int" name="MODEL_GW">     0</i>
   <i name="MODEL_EPS0">     89.72307692</i>
   <i name="MODEL_ALPHA">      1.00000000</i>
  </separator>
  <separator name="linear response parameters" >
   <i type="logical" name="LEPSILON"> F  </i>
   <i type="logical" name="LRPA"> F  </i>
   <i type="logical" name="LNABLA"> F  </i>
   <i type="logical" name="LVEL"> F  </i>
   <i type="int" name="KINTER">     0</i>
   <i name="CSHIFT">      0.10000000</i>
   <i name="OMEGAMAX">     -1.00000000</i>
   <i name="DEG_THRESHOLD">      0.00200000</i>
  </separator>
  <separator name="orbital magnetization" >
   <i type="logical" name="NUCIND"> F  </i>
   <v name="MAGPOS">      0.00000000      0.00000000      0.00000000</v>
   <i type="logical" name="LNICSALL"> T  </i>
   <i type="logical" name="ORBITALMAG"> F  </i>
   <i type="logical" name="LMAGBLOCH"> F  </i>
   <i type="logical" name="LCHIMAG"> F  </i>
   <i type="logical" name="LGAUGE"> T  </i>
   <i type="int" name="MAGATOM">     0</i>
   <v name="MAGDIPOL">      0.00000000      0.00000000      0.00000000</v>
   <v name="AVECCONST">      0.00000000      0.00000000      0.00000000</v>
  </separator>
  <separator name="response functions" >
   <i type="logical" name="LADDER"> F  </i>
   <i type="logical" name="LFXC"> F  </i>
   <i type="logical" name="LHARTREE"> T  </i>
   <i type="int" name="IBSE">     0</i>
   <v type="int" name="KPOINT">    -1     0     0     0</v>
   <i type="logical" name="LTCTE"> F  </i>
   <i type="logical" name="LTETE"> F  </i>
   <i type="logical" name="LTRIPLET"> F  </i>
   <i type="logical" name="LFXCEPS"> F  </i>
   <i type="logical" name="LFXHEG"> F  </i>
   <i type="int" name="NATURALO">     0</i>
   <i type="logical" name="L2ORDER"> F  </i>
   <i type="logical" name="LUSEW"> F  </i>
   <i name="ENCUTGW">     -2.00000000</i>
   <i name="ENCUTGWSOFT">     -2.00000000</i>
   <i name="ENCUTLF">     -1.00000000</i>
   <i type="int" name="LMAXMP2">    -1</i>
   <i name="SCISSOR">      0.00000000</i>
   <i type="int" name="NOMEGA">     0</i>
   <i type="int" name="NOMEGAR">     0</i>
   <i type="int" name="NBANDSGW">    -1</i>
   <i type="int" name="NBANDSO">    -1</i>
   <i type="int" name="NBANDSV">    -1</i>
   <i type="int" name="NELM">     1</i>
   <i type="int" name="NELMHF">     1</i>
   <i type="int" name="DIM">     3</i>
   <i type="int" name="ANTIRES">     0</i>
   <i name="OMEGAMAX">    -30.00000000</i>
   <i name="OMEGAMIN">    -30.00000000</i>
   <i name="OMEGATL">   -200.00000000</i>
   <i type="int" name="OMEGAGRID">     0</i>
   <i name="CSHIFT">     -0.10000000</i>
   <i type="logical" name="SELFENERGY"> F  </i>
   <i type="logical" name="LSPECTRAL"> F  </i>
   <i type="logical" name="LSPECTRALGW"> F  </i>
   <i type="logical" name="LSINGLES"> F  </i>
   <i type="logical" name="LFERMIGW"> F  </i>
   <i type="logical" name="ODDONLYGW"> F  </i>
   <i type="logical" name="EVENONLYGW"> F  </i>
   <i type="int" name="NKREDLFX">     1</i>
   <i type="int" name="NKREDLFY">     1</i>
   <i type="int" name="NKREDLFZ">     1</i>
   <i type="int" name="MAXMEM">  1800</i>
   <i type="int" name="TELESCOPE">     0</i>
   <i type="int" name="TAUPAR">     1</i>
   <i type="int" name="OMEGAPAR">    -1</i>
   <i name="LAMBDA">      1.00000000</i>
  </separator>
  <separator name="External order field" >
   <i name="OFIELD_KAPPA">      0.00000000</i>
   <v name="OFIELD_K">      0.00000000      0.00000000      0.00000000</v>
   <i name="OFIELD_Q6_NEAR">      0.00000000</i>
   <i name="OFIELD_Q6_FAR">      0.00000000</i>
   <i name="OFIELD_A">      0.00000000</i>
  </separator>
  <separator name="solvation model" >
   <i type="logical" name="LSOL"> F  </i>
  </separator>
 </parameters>
 <atominfo>
  <atoms>      39 </atoms>
  <types>       2 </types>
  <array name="atoms" >
   <dimension dim="1">ion</dimension>
   <field type="string">element</field>
   <field type="int">atomtype</field>
   <set>
    <rc><c>Zr</c><c>   1</c></rc>
    <rc><c>Zr</c><c>   1</c></rc>
    <rc><c>Zr</c><c>   1</c></rc>
    <rc><c>Zr</c><c>   1</c></rc>
    <rc><c>Zr</c><c>   1</c></rc>
    <rc><c>Zr</c><c>   1</c></rc>
    <rc><c>Zr</c><c>   1</c></rc>
    <rc><c>Zr</c><c>   1</c></rc>
    <rc><c>Zr</c><c>   1</c></rc>
    <rc><c>Zr</c><c>   1</c></rc>
    <rc><c>Zr</c><c>   1</c></rc>
    <rc><c>Zr</c><c>   1</c></rc>
    <rc><c>Zr</c><c>   1</c></rc>
    <rc><c>Zr</c><c>   1</c></rc>
    <rc><c>Zr</c><c>   1</c></rc>
    <rc><c>Zr</c><c>   1</c></rc>
    <rc><c>Zr</c><c>   1</c></rc>
    <rc><c>Zr</c><c>   1</c></rc>
    <rc><c>Zr</c><c>   1</c></rc>
    <rc><c>Zr</c><c>   1</c></rc>
    <rc><c>Zr</c><c>   1</c></rc>
    <rc><c>Zr</c><c>   1</c></rc>
    <rc><c>Zr</c><c>   1</c></rc>
    <rc><c>Zr</c><c>   1</c></rc>
    <rc><c>Zr</c><c>   1</c></rc>
    <rc><c>Zr</c><c>   1</c></rc>
    <rc><c>Zr</c><c>   1</c></rc>
    <rc><c>Zr</c><c>   1</c></rc>
    <rc><c>Zr</c><c>   1</c></rc>
    <rc><c>Zr</c><c>   1</c></rc>
    <rc><c>Zr</c><c>   1</c></rc>
    <rc><c>Zr</c><c>   1</c></rc>
    <rc><c>Zr</c><c>   1</c></rc>
    <rc><c>Zr</c><c>   1</c></rc>
    <rc><c>Zr</c><c>   1</c></rc>
    <rc><c>Zr</c><c>   1</c></rc>
    <rc><c>Zr</c><c>   1</c></rc>
    <rc><c>Zr</c><c>   1</c></rc>
    <rc><c>O </c><c>   2</c></rc>
   </set>
  </array>
  <array name="atomtypes" >
   <dimension dim="1">type</dimension>
   <field type="int">atomspertype</field>
   <field type="string">element</field>
   <field>mass</field>
   <field>valence</field>
   <field type="string">pseudopotential</field>
   <set>
    <rc><c>  38</c><c>Zr</c><c>     91.22400000</c><c>     12.00000000</c><c>  PAW Zr                                </c></rc>
    <rc><c>   1</c><c>O </c><c>     16.00000000</c><c>      6.00000000</c><c>  PAW O_s                               </c></rc>
   </set>
  </array>
 </atominfo>
 <structure name="initialpos" >
  <crystal>
   <varray name="basis" >
    <v>      18.00000000       0.00000000       0.00000000 </v>
    <v>       0.00000000      18.00000000       0.00000000 </v>
    <v>       0.00000000       0.00000000      18.00000000 </v>
   </varray>
   <i name="volume">   5832.00000000 </i>
   <varray name="rec_basis" >
    <v>       0.05555556       0.00000000       0.00000000 </v>
    <v>       0.00000000       0.05555556       0.00000000 </v>
    <v>       0.00000000       0.00000000       0.05555556 </v>
   </varray>
  </crystal>
  <varray name="positions" >
   <v>       0.74591087       0.62642104       0.50931903 </v>
   <v>       0.62192258       0.74459204       0.50581794 </v>
   <v>       0.25488259       0.61542620       0.50550188 </v>
   <v>       0.37272956       0.74256994       0.50989580 </v>
   <v>       0.25247802       0.38108898       0.50959880 </v>
   <v>       0.37186981       0.25542809       0.50845366 </v>
   <v>       0.74867704       0.38449618       0.50683671 </v>
   <v>       0.63189047       0.25575434       0.51199218 </v>
   <v>       0.69042860       0.49447892       0.59069895 </v>
   <v>       0.31076356       0.50064173       0.59289734 </v>
   <v>       0.50429272       0.68402833       0.59616055 </v>
   <v>       0.49356684       0.31188475       0.59341013 </v>
   <v>       0.68565156       0.66609612       0.61619587 </v>
   <v>       0.32680341       0.68189283       0.61426749 </v>
   <v>       0.31411057       0.33188431       0.61705079 </v>
   <v>       0.67147554       0.31726545       0.61625578 </v>
   <v>       0.68857118       0.49876829       0.40477299 </v>
   <v>       0.31202063       0.50233542       0.40233458 </v>
   <v>       0.50205658       0.68713481       0.40433065 </v>
   <v>       0.49890083       0.30618320       0.39963493 </v>
   <v>       0.67311175       0.67568685       0.37995185 </v>
   <v>       0.32770514       0.67616032       0.37788729 </v>
   <v>       0.32504045       0.32382870       0.37981980 </v>
   <v>       0.67775816       0.32659772       0.38032938 </v>
   <v>       0.57458435       0.59298967       0.68942463 </v>
   <v>       0.40861812       0.57798936       0.70165438 </v>
   <v>       0.42283615       0.40700559       0.68902431 </v>
   <v>       0.59068980       0.42214577       0.70109167 </v>
   <v>       0.59035938       0.60165599       0.31410142 </v>
   <v>       0.40032152       0.59340359       0.31294478 </v>
   <v>       0.39619760       0.40720527       0.31347613 </v>
   <v>       0.61014283       0.41249416       0.31291874 </v>
   <v>       0.49998794       0.49841381       0.59702712 </v>
   <v>       0.41207662       0.41162474       0.49511780 </v>
   <v>       0.41346651       0.58685376       0.49548004 </v>
   <v>       0.49976048       0.49793387       0.38590756 </v>
   <v>       0.58805848       0.58530653       0.49697834 </v>
   <v>       0.58666633       0.41007289       0.49493695 </v>
   <v>       0.49861543       0.49926046       0.73050175 </v>
  </varray>
  <varray name="selective"  type="logical" >
   <v type="logical" >  T  T  T </v>
   <v type="logical" >  T  T  T </v>
   <v type="logical" >  T  T  T </v>
   <v type="logical" >  T  T  T </v>
   <v type="logical" >  T  T  T </v>
   <v type="logical" >  T  T  T </v>
   <v type="logical" >  T  T  T </v>
   <v type="logical" >  T  T  T </v>
   <v type="logical" >  T  T  T </v>
   <v type="logical" >  T  T  T </v>
   <v type="logical" >  T  T  T </v>
   <v type="logical" >  T  T  T </v>
   <v type="logical" >  T  T  T </v>
   <v type="logical" >  T  T  T </v>
   <v type="logical" >  T  T  T </v>
   <v type="logical" >  T  T  T </v>
   <v type="logical" >  T  T  T </v>
   <v type="logical" >  T  T  T </v>
   <v type="logical" >  T  T  T </v>
   <v type="logical" >  T  T  T </v>
   <v type="logical" >  T  T  T </v>
   <v type="logical" >  T  T  T </v>
   <v type="logical" >  T  T  T </v>
   <v type="logical" >  T  T  T </v>
   <v type="logical" >  T  T  T </v>
   <v type="logical" >  T  T  T </v>
   <v type="logical" >  T  T  T </v>
   <v type="logical" >  T  T  T </v>
   <v type="logical" >  T  T  T </v>
   <v type="logical" >  T  T  T </v>
   <v type="logical" >  T  T  T </v>
   <v type="logical" >  T  T  T </v>
   <v type="logical" >  T  T  T </v>
   <v type="logical" >  T  T  T </v>
   <v type="logical" >  T  T  T </v>
   <v type="logical" >  T  T  T </v>
   <v type="logical" >  T  T  T </v>
   <v type="logical" >  T  T  T </v>
   <v type="logical" >  T  T  T </v>
  </varray>
  <nose>
   <v>      -3.00000000       0.00000000       0.00010000       0.00010000 </v>
  </nose>
 </structure>
 <calculation>
  <scstep>
   <time name="diag">    3.09    3.09</time>
   <time name="diis">    6.26    6.26</time>
   <time name="orth">    0.27    0.27</time>
   <time name="total">   11.07   11.08</time>
   <energy>
    <i name="alphaZ">    658.81366564 </i>
    <i name="ewald">  76983.31229703 </i>
    <i name="hartreedc">-117578.13201797 </i>
    <i name="XCdc">   1912.74753826 </i>
    <i name="pawpsdc">  32016.11175618 </i>
    <i name="pawaedc"> -31354.68682408 </i>
    <i name="eentropy">     -0.05989610 </i>
    <i name="bandstr">  -6213.62177604 </i>
    <i name="atom">  49261.28908022 </i>
    <i name="e_fr_energy">   5685.77382314 </i>
    <i name="e_wo_entrp">   5685.83371924 </i>
    <i name="e_0_energy">   5685.79378851 </i>
   </energy>
  </scstep>
  <scstep>
   <time name="diag">    3.12    3.12</time>
   <time name="diis">    6.27    6.27</time>
   <time name="orth">    0.27    0.27</time>
   <time name="total">    9.66    9.67</time>
   <energy>
    <i name="e_fr_energy">   1240.51571983 </i>
    <i name="e_wo_entrp">   1240.75333432 </i>
    <i name="e_0_energy">   1240.59492466 </i>
   </energy>
  </scstep>
  <scstep>
   <time name="diag">    3.09    3.09</time>
   <time name="diis">    6.27    6.28</time>
   <time name="orth">    0.27    0.27</time>
   <time name="total">    9.64    9.65</time>
   <energy>
    <i name="e_fr_energy">   1592.74707982 </i>
    <i name="e_wo_entrp">   1593.09313772 </i>
    <i name="e_0_energy">   1592.86243245 </i>
   </energy>
  </scstep>
  <scstep>
   <time name="diag">    3.11    3.12</time>
   <time name="diis">    6.26    6.26</time>
   <time name="orth">    0.27    0.27</time>
   <time name="total">    9.65    9.66</time>
   <energy>
    <i name="e_fr_energy">    929.23435173 </i>
    <i name="e_wo_entrp">    929.29648902 </i>
    <i name="e_0_energy">    929.25506416 </i>
   </energy>
  </scstep>
  <scstep>
   <time name="diag">    3.08    3.11</time>
   <time name="diis">    6.22    6.26</time>
   <time name="orth">    0.27    0.27</time>
   <time name="total">    9.57    9.65</time>
   <energy>
    <i name="e_fr_energy">    541.72380408 </i>
    <i name="e_wo_entrp">    541.77583706 </i>
    <i name="e_0_energy">    541.74114841 </i>
   </energy>
  </scstep>
  <scstep>
   <time name="diag">    3.12    3.12</time>
   <time name="diis">    6.30    6.30</time>
   <time name="orth">    0.27    0.27</time>
   <time name="total">    9.70    9.70</time>
   <energy>
    <i name="e_fr_energy">    487.30427268 </i>
    <i name="e_wo_entrp">    487.24473263 </i>
    <i name="e_0_energy">    487.28442600 </i>
   </energy>
  </scstep>
  <scstep>
   <time name="diag">    3.09    3.09</time>
   <time name="diis">    6.25    6.26</time>
   <time name="orth">    0.27    0.27</time>
   <time name="total">    9.63    9.63</time>
   <energy>
    <i name="e_fr_energy">    347.69862316 </i>
    <i name="e_wo_entrp">    347.70459383 </i>
    <i name="e_0_energy">    347.70061338 </i>
   </energy>
  </scstep>
  <scstep>
   <time name="diag">    3.09    3.09</time>
   <time name="diis">    6.29    6.29</time>
   <time name="orth">    0.27    0.27</time>
   <time name="total">    9.66    9.66</time>
   <energy>
    <i name="e_fr_energy">    351.04308535 </i>
    <i name="e_wo_entrp">    351.11252216 </i>
    <i name="e_0_energy">    351.06623095 </i>
   </energy>
  </scstep>
  <scstep>
   <time name="diag">    3.12    3.12</time>
   <time name="diis">   17.96   17.97</time>
   <time name="orth">    0.27    0.28</time>
   <time name="total">   21.35   21.37</time>
   <energy>
    <i name="e_fr_energy">    392.43344767 </i>
    <i name="e_wo_entrp">    392.52755935 </i>
    <i name="e_0_energy">    392.46481823 </i>
   </energy>
  </scstep>
  <scstep>
   <time name="diag">    3.06    3.10</time>
   <time name="diis">   17.29   17.33</time>
   <time name="orth">    0.27    0.28</time>
   <time name="total">   20.63   20.72</time>
   <energy>
    <i name="e_fr_energy">    518.53493665 </i>
    <i name="e_wo_entrp">    518.57094327 </i>
    <i name="e_0_energy">    518.54693886 </i>
   </energy>
  </scstep>
  <scstep>
   <time name="diag">    3.11    3.11</time>
   <time name="diis">   16.19   16.19</time>
   <time name="orth">    0.27    0.27</time>
   <time name="total">   19.57   19.58</time>
   <energy>
    <i name="e_fr_energy">    684.28749311 </i>
    <i name="e_wo_entrp">    684.43980003 </i>
    <i name="e_0_energy">    684.33826209 </i>
   </energy>
  </scstep>
  <scstep>
   <time name="diag">    3.12    3.12</time>
   <time name="diis">   18.98   19.08</time>
   <time name="orth">    0.27    0.28</time>
   <time name="total">   23.69   23.81</time>
   <energy>
    <i name="e_fr_energy">    640.78681588 </i>
    <i name="e_wo_entrp">    640.69798101 </i>
    <i name="e_0_energy">    640.75720426 </i>
   </energy>
  </scstep>
  <scstep>
   <time name="diag">    3.10    3.12</time>
   <time name="diis">   18.65   18.66</time>
   <time name="orth">    0.27    0.27</time>
   <time name="total">   24.73   24.76</time>
   <energy>
    <i name="e_fr_energy">    678.15265773 </i>
    <i name="e_wo_entrp">    678.22158575 </i>
    <i name="e_0_energy">    678.17563374 </i>
   </energy>
  </scstep>
  <scstep>
   <time name="diag">    3.11    3.11</time>
   <time name="diis">   17.12   17.13</time>
   <time name="orth">    0.27    0.27</time>
   <time name="total">   23.27   23.27</time>
   <energy>
    <i name="e_fr_energy">    702.34238046 </i>
    <i name="e_wo_entrp">    702.30607575 </i>
    <i name="e_0_energy">    702.33027889 </i>
   </energy>
  </scstep>
  <scstep>
   <time name="diag">    3.11    3.11</time>
   <time name="diis">   19.89   19.98</time>
   <time name="orth">    0.28    0.28</time>
   <time name="total">   26.02   26.11</time>
   <energy>
    <i name="e_fr_energy">    699.44837134 </i>
    <i name="e_wo_entrp">    699.42581494 </i>
    <i name="e_0_energy">    699.44085254 </i>
   </energy>
  </scstep>
  <scstep>
   <time name="diag">    3.13    3.13</time>
   <time name="diis">   20.75   20.76</time>
   <time name="orth">    0.27    0.27</time>
   <time name="total">   26.89   26.90</time>
   <energy>
    <i name="e_fr_energy">    700.22011030 </i>
    <i name="e_wo_entrp">    700.26138309 </i>
    <i name="e_0_energy">    700.23386790 </i>
   </energy>
  </scstep>
  <scstep>
   <time name="diag">    3.13    3.13</time>
   <time name="diis">   21.11   21.20</time>
   <time name="orth">    0.27    0.27</time>
   <time name="total">   27.18   27.27</time>
   <energy>
    <i name="e_fr_energy">    699.23238019 </i>
    <i name="e_wo_entrp">    699.28108881 </i>
    <i name="e_0_energy">    699.24861639 </i>
   </energy>
  </scstep>
  <scstep>
   <time name="diag">    3.14    3.14</time>
   <time name="diis">   21.79   21.79</time>
   <time name="orth">    0.27    0.27</time>
   <time name="total">   27.91   27.91</time>
   <energy>
    <i name="e_fr_energy">    698.68795063 </i>
    <i name="e_wo_entrp">    698.75267827 </i>
    <i name="e_0_energy">    698.70952651 </i>
   </energy>
  </scstep>
  <scstep>
   <time name="diag">    3.15    3.15</time>
   <time name="diis">   19.12   19.17</time>
   <time name="orth">    0.27    0.28</time>
   <time name="total">   25.25   25.31</time>
   <energy>
    <i name="e_fr_energy">    698.51273234 </i>
    <i name="e_wo_entrp">    698.59118253 </i>
    <i name="e_0_energy">    698.53888240 </i>
   </energy>
  </scstep>
  <scstep>
   <time name="diag">    3.15    3.15</time>
   <time name="diis">   20.27   20.27</time>
   <time name="orth">    0.27    0.27</time>
   <time name="total">   26.41   26.42</time>
   <energy>
    <i name="e_fr_energy">    698.70549116 </i>
    <i name="e_wo_entrp">    698.76595295 </i>
    <i name="e_0_energy">    698.72564509 </i>
   </energy>
  </scstep>
  <scstep>
   <time name="diag">    3.12    3.13</time>
   <time name="diis">   21.08   21.09</time>
   <time name="orth">    0.27    0.27</time>
   <time name="total">   27.28   27.29</time>
   <energy>
    <i name="e_fr_energy">    698.79954756 </i>
    <i name="e_wo_entrp">    698.86214157 </i>
    <i name="e_0_energy">    698.82041223 </i>
   </energy>
  </scstep>
  <scstep>
   <time name="diag">    3.02    3.05</time>
   <time name="diis">   20.87   20.92</time>
   <time name="orth">    0.27    0.27</time>
   <time name="total">   26.92   27.01</time>
   <energy>
    <i name="e_fr_energy">    698.80173707 </i>
    <i name="e_wo_entrp">    698.85700177 </i>
    <i name="e_0_energy">    698.82015864 </i>
   </energy>
  </scstep>
  <scstep>
   <time name="diag">    3.12    3.12</time>
   <time name="diis">   20.85   20.85</time>
   <time name="orth">    0.27    0.27</time>
   <time name="total">   26.98   26.98</time>
   <energy>
    <i name="e_fr_energy">    698.72195286 </i>
    <i name="e_wo_entrp">    698.78375850 </i>
    <i name="e_0_energy">    698.74255474 </i>
   </energy>
  </scstep>
  <scstep>
   <time name="diag">    3.12    3.12</time>
   <time name="diis">   19.26   19.35</time>
   <time name="orth">    0.27    0.27</time>
   <time name="total">   25.38   25.47</time>
   <energy>
    <i name="e_fr_energy">    698.75073944 </i>
    <i name="e_wo_entrp">    698.81569722 </i>
    <i name="e_0_energy">    698.77239203 </i>
   </energy>
  </scstep>
  <scstep>
   <time name="diag">    3.10    3.10</time>
   <time name="diis">   19.97   19.97</time>
   <time name="orth">    0.27    0.27</time>
   <time name="total">   26.15   26.16</time>
   <energy>
    <i name="e_fr_energy">    698.72298337 </i>
    <i name="e_wo_entrp">    698.78590010 </i>
    <i name="e_0_energy">    698.74395561 </i>
   </energy>
  </scstep>
  <scstep>
   <time name="diag">    3.16    3.15</time>
   <time name="diis">   20.48   20.57</time>
   <time name="orth">    0.27    0.27</time>
   <time name="total">   26.66   26.75</time>
   <energy>
    <i name="e_fr_energy">    698.71492588 </i>
    <i name="e_wo_entrp">    698.77180046 </i>
    <i name="e_0_energy">    698.73388407 </i>
   </energy>
  </scstep>
  <scstep>
   <time name="diag">    3.12    3.12</time>
   <time name="diis">   20.07   20.07</time>
   <time name="orth">    0.27    0.27</time>
   <time name="total">   26.23   26.24</time>
   <energy>
    <i name="e_fr_energy">    698.69591380 </i>
    <i name="e_wo_entrp">    698.75147911 </i>
    <i name="e_0_energy">    698.71443557 </i>
   </energy>
  </scstep>
  <scstep>
   <time name="diag">    3.13    3.13</time>
   <time name="diis">   20.35   20.38</time>
   <time name="orth">    0.27    0.27</time>
   <time name="total">   26.54   26.59</time>
   <energy>
    <i name="e_fr_energy">    698.68185434 </i>
    <i name="e_wo_entrp">    698.74109638 </i>
    <i name="e_0_energy">    698.70160169 </i>
   </energy>
  </scstep>
  <scstep>
   <time name="diag">    3.06    3.08</time>
   <time name="diis">   20.05   20.05</time>
   <time name="orth">    0.27    0.27</time>
   <time name="total">   26.15   26.18</time>
   <energy>
    <i name="e_fr_energy">    698.66240380 </i>
    <i name="e_wo_entrp">    698.71970903 </i>
    <i name="e_0_energy">    698.68150554 </i>
   </energy>
  </scstep>
  <scstep>
   <time name="diag">    3.09    3.09</time>
   <time name="diis">   19.69   19.69</time>
   <time name="orth">    0.27    0.27</time>
   <time name="total">   25.83   25.84</time>
   <energy>
    <i name="e_fr_energy">    698.65011609 </i>
    <i name="e_wo_entrp">    698.70771802 </i>
    <i name="e_0_energy">    698.66931673 </i>
   </energy>
  </scstep>
  <scstep>
   <time name="diag">    3.07    3.08</time>
   <time name="diis">   19.44   19.52</time>
   <time name="orth">    0.27    0.27</time>
   <time name="total">   25.61   25.69</time>
   <energy>
    <i name="e_fr_energy">    698.63569958 </i>
    <i name="e_wo_entrp">    698.69297780 </i>
    <i name="e_0_energy">    698.65479232 </i>
   </energy>
  </scstep>
  <scstep>
   <time name="diag">    3.12    3.12</time>
   <time name="diis">   17.66   17.66</time>
   <time name="orth">    0.27    0.27</time>
   <time name="total">   23.91   23.91</time>
   <energy>
    <i name="e_fr_energy">    698.62530236 </i>
    <i name="e_wo_entrp">    698.68183330 </i>
    <i name="e_0_energy">    698.64414601 </i>
   </energy>
  </scstep>
  <scstep>
   <time name="diag">    3.11    3.12</time>
   <time name="diis">   16.76   16.84</time>
   <time name="orth">    0.27    0.27</time>
   <time name="total">   23.01   23.10</time>
   <energy>
    <i name="e_fr_energy">    698.61072490 </i>
    <i name="e_wo_entrp">    698.66756932 </i>
    <i name="e_0_energy">    698.62967304 </i>
   </energy>
  </scstep>
  <scstep>
   <time name="diag">    3.12    3.12</time>
   <time name="diis">   16.25   16.25</time>
   <time name="orth">    0.27    0.27</time>
   <time name="total">   22.50   22.50</time>
   <energy>
    <i name="e_fr_energy">    698.59754508 </i>
    <i name="e_wo_entrp">    698.65392610 </i>
    <i name="e_0_energy">    698.61633875 </i>
   </energy>
  </scstep>
  <scstep>
   <time name="diag">    3.09    3.10</time>
   <time name="diis">   16.27   16.27</time>
   <time name="orth">    0.27    0.27</time>
   <time name="total">   22.52   22.52</time>
   <energy>
    <i name="e_fr_energy">    698.58286997 </i>
    <i name="e_wo_entrp">    698.63930418 </i>
    <i name="e_0_energy">    698.60168137 </i>
   </energy>
  </scstep>
  <scstep>
   <time name="diag">    3.04    3.04</time>
   <time name="diis">   15.08   15.16</time>
   <time name="orth">    0.27    0.27</time>
   <time name="total">   21.26   21.36</time>
   <energy>
    <i name="e_fr_energy">    698.56981235 </i>
    <i name="e_wo_entrp">    698.62610069 </i>
    <i name="e_0_energy">    698.58857513 </i>
   </energy>
  </scstep>
  <scstep>
   <time name="diag">    3.04    3.04</time>
   <time name="diis">   12.86   12.86</time>
   <time name="orth">    0.27    0.27</time>
   <time name="total">   19.06   19.06</time>
   <energy>
    <i name="e_fr_energy">    698.55639148 </i>
    <i name="e_wo_entrp">    698.61256367 </i>
    <i name="e_0_energy">    698.57511555 </i>
   </energy>
  </scstep>
  <scstep>
   <time name="diag">    3.05    3.05</time>
   <time name="diis">   11.80   11.81</time>
   <time name="orth">    0.27    0.27</time>
   <time name="total">   18.02   18.03</time>
   <energy>
    <i name="e_fr_energy">    698.54429559 </i>
    <i name="e_wo_entrp">    698.60032743 </i>
    <i name="e_0_energy">    698.56297287 </i>
   </energy>
  </scstep>
  <scstep>
   <time name="diag">    3.06    3.06</time>
   <time name="diis">   15.20   15.28</time>
   <time name="orth">    0.27    0.27</time>
   <time name="total">   21.44   21.53</time>
   <energy>
    <i name="e_fr_energy">    698.53154251 </i>
    <i name="e_wo_entrp">    698.58768275 </i>
    <i name="e_0_energy">    698.55025592 </i>
   </energy>
  </scstep>
  <scstep>
   <time name="diag">    3.03    3.03</time>
   <time name="diis">   15.40   15.40</time>
   <time name="orth">    0.27    0.27</time>
   <time name="total">   21.62   21.63</time>
   <energy>
    <i name="e_fr_energy">    698.51956188 </i>
    <i name="e_wo_entrp">    698.57571426 </i>
    <i name="e_0_energy">    698.53827934 </i>
   </energy>
  </scstep>
  <scstep>
   <time name="diag">    3.05    3.05</time>
   <time name="diis">   12.88   12.88</time>
   <time name="orth">    0.27    0.27</time>
   <time name="total">   19.14   19.14</time>
   <energy>
    <i name="e_fr_energy">    698.50791278 </i>
    <i name="e_wo_entrp">    698.56405556 </i>
    <i name="e_0_energy">    698.52662704 </i>
   </energy>
  </scstep>
  <scstep>
   <time name="diag">    3.06    3.06</time>
   <time name="diis">   10.30   10.38</time>
   <time name="orth">    0.27    0.28</time>
   <time name="total">   16.61   16.69</time>
   <energy>
    <i name="e_fr_energy">    698.49685640 </i>
    <i name="e_wo_entrp">    698.55294239 </i>
    <i name="e_0_energy">    698.51555173 </i>
   </energy>
  </scstep>
  <scstep>
   <time name="diag">    3.04    3.04</time>
   <time name="diis">   13.05   13.05</time>
   <time name="orth">    0.27    0.27</time>
   <time name="total">   19.32   19.33</time>
   <energy>
    <i name="e_fr_energy">    698.48580738 </i>
    <i name="e_wo_entrp">    698.54187446 </i>
    <i name="e_0_energy">    698.50449641 </i>
   </energy>
  </scstep>
  <scstep>
   <time name="diag">    3.04    3.04</time>
   <time name="diis">   13.28   13.29</time>
   <time name="orth">    0.27    0.27</time>
   <time name="total">   19.54   19.55</time>
   <energy>
    <i name="e_fr_energy">    698.47515746 </i>
    <i name="e_wo_entrp">    698.53117681 </i>
    <i name="e_0_energy">    698.49383058 </i>
   </energy>
  </scstep>
  <scstep>
   <time name="diag">    3.06    3.06</time>
   <time name="diis">   11.84   11.92</time>
   <time name="orth">    0.27    0.28</time>
   <time name="total">   18.12   18.20</time>
   <energy>
    <i name="e_fr_energy">    698.46474235 </i>
    <i name="e_wo_entrp">    698.52071695 </i>
    <i name="e_0_energy">    698.48340055 </i>
   </energy>
  </scstep>
  <scstep>
   <time name="diag">    3.13    3.13</time>
   <time name="diis">   11.37   11.37</time>
   <time name="orth">    0.27    0.27</time>
   <time name="total">   17.74   17.74</time>
   <energy>
    <i name="e_fr_energy">    698.45463071 </i>
    <i name="e_wo_entrp">    698.51054505 </i>
    <i name="e_0_energy">    698.47326882 </i>
   </energy>
  </scstep>
  <scstep>
   <time name="diag">    3.11    3.11</time>
   <time name="diis">   10.68   10.69</time>
   <time name="orth">    0.27    0.27</time>
   <time name="total">   17.03   17.04</time>
   <energy>
    <i name="e_fr_energy">    698.44464998 </i>
    <i name="e_wo_entrp">    698.50054145 </i>
    <i name="e_0_energy">    698.46328047 </i>
   </energy>
  </scstep>
  <scstep>
   <time name="diag">    3.09    3.09</time>
   <time name="diis">   11.16   11.16</time>
   <time name="orth">    0.27    0.27</time>
   <time name="total">   17.53   17.53</time>
   <energy>
    <i name="e_fr_energy">    698.43496448 </i>
    <i name="e_wo_entrp">    698.49079461 </i>
    <i name="e_0_energy">    698.45357452 </i>
   </energy>
  </scstep>
  <scstep>
   <time name="diag">    2.98    3.01</time>
   <time name="diis">   10.02   10.05</time>
   <time name="orth">    0.27    0.27</time>
   <time name="total">   16.25   16.32</time>
   <energy>
    <i name="e_fr_energy">    698.42530837 </i>
    <i name="e_wo_entrp">    698.48112857 </i>
    <i name="e_0_energy">    698.44391511 </i>
   </energy>
  </scstep>
  <scstep>
   <time name="diag">    3.14    3.14</time>
   <time name="diis">   11.61   11.61</time>
   <time name="orth">    0.27    0.27</time>
   <time name="total">   18.03   18.03</time>
   <energy>
    <i name="e_fr_energy">    698.41624880 </i>
    <i name="e_wo_entrp">    698.47186959 </i>
    <i name="e_0_energy">    698.43478906 </i>
   </energy>
  </scstep>
  <scstep>
   <time name="diag">    3.08    3.09</time>
   <time name="diis">   12.24   12.27</time>
   <time name="orth">    0.27    0.27</time>
   <time name="total">   18.62   18.66</time>
   <energy>
    <i name="e_fr_energy">    698.40731539 </i>
    <i name="e_wo_entrp">    698.46283074 </i>
    <i name="e_0_energy">    698.42582051 </i>
   </energy>
  </scstep>
  <scstep>
   <time name="diag">    3.08    3.08</time>
   <time name="diis">    9.98   10.07</time>
   <time name="orth">    0.27    0.27</time>
   <time name="total">   16.35   16.44</time>
   <energy>
    <i name="e_fr_energy">    698.39847049 </i>
    <i name="e_wo_entrp">    698.45392314 </i>
    <i name="e_0_energy">    698.41695471 </i>
   </energy>
  </scstep>
  <scstep>
   <time name="diag">    3.10    3.10</time>
   <time name="diis">   10.66   10.66</time>
   <time name="orth">    0.27    0.27</time>
   <time name="total">   17.07   17.07</time>
   <energy>
    <i name="e_fr_energy">    698.38978584 </i>
    <i name="e_wo_entrp">    698.44521237 </i>
    <i name="e_0_energy">    698.40826135 </i>
   </energy>
  </scstep>
  <scstep>
   <time name="diag">    3.11    3.11</time>
   <time name="diis">   10.23   10.23</time>
   <time name="orth">    0.27    0.27</time>
   <time name="total">   16.67   16.67</time>
   <energy>
    <i name="e_fr_energy">    698.38125478 </i>
    <i name="e_wo_entrp">    698.43666501 </i>
    <i name="e_0_energy">    698.39972485 </i>
   </energy>
  </scstep>
  <scstep>
   <time name="diag">    3.17    3.17</time>
   <time name="diis">   10.04   10.04</time>
   <time name="orth">    0.27    0.27</time>
   <time name="total">   16.55   16.55</time>
   <energy>
    <i name="e_fr_energy">    698.37286528 </i>
    <i name="e_wo_entrp">    698.42825898 </i>
    <i name="e_0_energy">    698.39132985 </i>
   </energy>
  </scstep>
  <scstep>
   <time name="diag">    3.00    3.04</time>
   <time name="diis">    9.92    9.95</time>
   <time name="orth">    0.27    0.27</time>
   <time name="total">   16.26   16.34</time>
   <energy>
    <i name="e_fr_energy">    698.36469704 </i>
    <i name="e_wo_entrp">    698.42007714 </i>
    <i name="e_0_energy">    698.38315707 </i>
   </energy>
  </scstep>
  <scstep>
   <time name="diag">    3.13    3.13</time>
   <time name="diis">    9.55    9.55</time>
   <time name="orth">    0.27    0.27</time>
   <time name="total">   16.03   16.03</time>
   <energy>
    <i name="e_fr_energy">    698.35668104 </i>
    <i name="e_wo_entrp">    698.41204479 </i>
    <i name="e_0_energy">    698.37513562 </i>
   </energy>
  </scstep>
  <scstep>
   <time name="diag">    3.11    3.11</time>
   <time name="diis">    8.36    8.37</time>
   <time name="orth">    0.27    0.27</time>
   <time name="total">   14.81   14.81</time>
   <energy>
    <i name="e_fr_energy">    698.34877118 </i>
    <i name="e_wo_entrp">    698.40412198 </i>
    <i name="e_0_energy">    698.36722145 </i>
   </energy>
  </scstep>
  <scstep>
   <time name="diag">    3.14    3.14</time>
   <time name="diis">    8.54    8.54</time>
   <time name="orth">    0.27    0.28</time>
   <time name="total">   15.00   15.02</time>
   <energy>
    <i name="e_fr_energy">    698.34098235 </i>
    <i name="e_wo_entrp">    698.39632728 </i>
    <i name="e_0_energy">    698.35943066 </i>
   </energy>
  </scstep>
  <scstep>
   <time name="diag">    3.08    3.12</time>
   <time name="diis">    9.59    9.59</time>
   <time name="orth">    0.27    0.27</time>
   <time name="total">   14.38   14.44</time>
   <energy>
    <i name="alphaZ">    658.81366564 </i>
    <i name="ewald">  76983.31229703 </i>
    <i name="hartreedc">-118511.67335139 </i>
    <i name="XCdc">   1885.79416113 </i>
    <i name="pawpsdc">  33351.49873741 </i>
    <i name="pawaedc"> -32559.90419310 </i>
    <i name="eentropy">     -0.05534048 </i>
    <i name="bandstr"> -10370.74167053 </i>
    <i name="atom">  49261.28908022 </i>
    <i name="e_fr_energy">    698.33338594 </i>
    <i name="e_wo_entrp">    698.38872641 </i>
    <i name="e_0_energy">    698.35183276 </i>
   </energy>
  </scstep>
  <structure>
   <crystal>
    <varray name="basis" >
     <v>      18.00000000       0.00000000       0.00000000 </v>
     <v>       0.00000000      18.00000000       0.00000000 </v>
     <v>       0.00000000       0.00000000      18.00000000 </v>
    </varray>
    <i name="volume">   5832.00000000 </i>
    <varray name="rec_basis" >
     <v>       0.05555556       0.00000000       0.00000000 </v>
     <v>       0.00000000       0.05555556       0.00000000 </v>
     <v>       0.00000000       0.00000000       0.05555556 </v>
    </varray>
   </crystal>
   <varray name="positions" >
    <v>       0.74591087       0.62642104       0.50931903 </v>
    <v>       0.62192258       0.74459204       0.50581794 </v>
    <v>       0.25488259       0.61542620       0.50550188 </v>
    <v>       0.37272956       0.74256994       0.50989580 </v>
    <v>       0.25247802       0.38108898       0.50959880 </v>
    <v>       0.37186981       0.25542809       0.50845366 </v>
    <v>       0.74867704       0.38449618       0.50683671 </v>
    <v>       0.63189047       0.25575434       0.51199218 </v>
    <v>       0.69042860       0.49447892       0.59069895 </v>
    <v>       0.31076356       0.50064173       0.59289734 </v>
    <v>       0.50429272       0.68402833       0.59616055 </v>
    <v>       0.49356684       0.31188475       0.59341013 </v>
    <v>       0.68565156       0.66609612       0.61619587 </v>
    <v>       0.32680341       0.68189283       0.61426749 </v>
    <v>       0.31411057       0.33188431       0.61705079 </v>
    <v>       0.67147554       0.31726545       0.61625578 </v>
    <v>       0.68857118       0.49876829       0.40477299 </v>
    <v>       0.31202063       0.50233542       0.40233458 </v>
    <v>       0.50205658       0.68713481       0.40433065 </v>
    <v>       0.49890083       0.30618320       0.39963493 </v>
    <v>       0.67311175       0.67568685       0.37995185 </v>
    <v>       0.32770514       0.67616032       0.37788729 </v>
    <v>       0.32504045       0.32382870       0.37981980 </v>
    <v>       0.67775816       0.32659772       0.38032938 </v>
    <v>       0.57458435       0.59298967       0.68942463 </v>
    <v>       0.40861812       0.57798936       0.70165438 </v>
    <v>       0.42283615       0.40700559       0.68902431 </v>
    <v>       0.59068980       0.42214577       0.70109167 </v>
    <v>       0.59035938       0.60165599       0.31410142 </v>
    <v>       0.40032152       0.59340359       0.31294478 </v>
    <v>       0.39619760       0.40720527       0.31347613 </v>
    <v>       0.61014283       0.41249416       0.31291874 </v>
    <v>       0.49998794       0.49841381       0.59702712 </v>
    <v>       0.41207662       0.41162474       0.49511780 </v>
    <v>       0.41346651       0.58685376       0.49548004 </v>
    <v>       0.49976048       0.49793387       0.38590756 </v>
    <v>       0.58805848       0.58530653       0.49697834 </v>
    <v>       0.58666633       0.41007289       0.49493695 </v>
    <v>       0.49861543       0.49926046       0.73050175 </v>
   </varray>
  </structure>
  <varray name="forces" >
   <v>       0.79374259      -0.20709534      -1.13515415 </v>
   <v>       0.41845469       0.83577305      -0.45920837 </v>
   <v>      -1.10089608       0.74423259      -0.98067522 </v>
   <v>       0.18238348       0.70602254      -1.09763465 </v>
   <v>      -0.77690072      -0.14384794      -1.10556032 </v>
   <v>      -0.25910646      -0.54785289      -0.81897677 </v>
   <v>       0.75668785      -0.60964283      -0.83971961 </v>
   <v>      -0.17838976      -0.56866241      -1.12222943 </v>
   <v>      -0.53071434       0.08719585       0.86430641 </v>
   <v>       0.75078128       0.00886480       0.81942212 </v>
   <v>      -0.44842751       0.18517619       0.47638737 </v>
   <v>       0.42828856       0.00865573       0.44531886 </v>
   <v>      -0.53537073       0.23926217       0.92449129 </v>
   <v>       0.11269439      -0.77025340       1.50707204 </v>
   <v>       0.61832853      -0.06713236       0.82787917 </v>
   <v>      -0.08386242       0.58293469       1.29859083 </v>
   <v>       0.92687206       0.30821637       0.24756025 </v>
   <v>      -0.68313971      -0.32999217       0.73304319 </v>
   <v>      -0.01185147       0.78955238       0.33065602 </v>
   <v>      -0.14046332       0.12193617       0.43243192 </v>
   <v>       0.31811619       0.70090606       0.36683104 </v>
   <v>      -0.72595160       0.29088046       0.46991777 </v>
   <v>      -0.31946903      -0.56554832       0.53344754 </v>
   <v>       0.64423863      -0.45667184       0.44373279 </v>
   <v>       0.87108970      -0.15023846       0.74508366 </v>
   <v>      -0.16616834       0.32960016      -0.40247264 </v>
   <v>      -0.76773442       0.00377488       0.55034979 </v>
   <v>       0.07641789      -0.31361817      -0.27398152 </v>
   <v>      -0.35087023      -1.11575063      -1.02992893 </v>
   <v>       1.04593664      -0.43860435      -0.94493458 </v>
   <v>       0.89165623       0.61202477      -0.82266458 </v>
   <v>      -1.32721885       0.31568673      -0.80838774 </v>
   <v>      -0.29148180      -0.05749083      -0.60074972 </v>
   <v>       0.14426496      -0.09846198       0.08064726 </v>
   <v>       0.07169575      -0.26219251       0.29743412 </v>
   <v>      -0.00134492      -0.07247813      -0.06673833 </v>
   <v>      -0.07045569      -0.07261146       0.13327320 </v>
   <v>      -0.26549573      -0.07319316       0.09262920 </v>
   <v>      -0.01633629       0.05064359      -0.11148929 </v>
  </varray>
  <energy>
   <i name="e_fr_energy">    698.33338594 </i>
   <i name="e_wo_entrp">    698.35183276 </i>
   <i name="e_0_energy">     -0.05534048 </i>
  </energy>
  <time name="totalsc"> 1206.94 1208.94</time>
 </calculation>
 <calculation>
  <scstep>
   <time name="diag">    3.18    3.18</time>
   <time name="diis">   14.19   14.19</time>
   <time name="orth">    0.27    0.27</time>
   <time name="total">   20.38   20.38</time>
   <energy>
    <i name="alphaZ">    658.81366564 </i>
    <i name="ewald">  76761.99277312 </i>
    <i name="hartreedc">-118299.01670334 </i>
    <i name="XCdc">   1885.19779005 </i>
    <i name="pawpsdc">  33351.49920809 </i>
    <i name="pawaedc"> -32559.90458450 </i>
    <i name="eentropy">     -0.04469310 </i>
    <i name="bandstr"> -10362.16316198 </i>
    <i name="atom">  49261.28908022 </i>
    <i name="e_fr_energy">    697.66337420 </i>
    <i name="e_wo_entrp">    697.70806731 </i>
    <i name="e_0_energy">    697.67827190 </i>
   </energy>
  </scstep>
  <scstep>
   <time name="diag">    3.23    3.23</time>
   <time name="diis">   17.22   17.31</time>
   <time name="orth">    0.27    0.27</time>
   <time name="total">   23.54   23.63</time>
   <energy>
    <i name="e_fr_energy">    697.87624882 </i>
    <i name="e_wo_entrp">    697.92416514 </i>
    <i name="e_0_energy">    697.89222093 </i>
   </energy>
  </scstep>
  <scstep>
   <time name="diag">    3.18    3.18</time>
   <time name="diis">   20.74   20.74</time>
   <time name="orth">    0.27    0.27</time>
   <time name="total">   26.94   26.94</time>
   <energy>
    <i name="e_fr_energy">    697.92781984 </i>
    <i name="e_wo_entrp">    697.97279768 </i>
    <i name="e_0_energy">    697.94281246 </i>
   </energy>
  </scstep>
  <scstep>
   <time name="diag">    3.14    3.14</time>
   <time name="diis">   21.99   22.06</time>
   <time name="orth">    0.27    0.28</time>
   <time name="total">   28.14   28.22</time>
   <energy>
    <i name="e_fr_energy">    697.92209984 </i>
    <i name="e_wo_entrp">    697.96666000 </i>
    <i name="e_0_energy">    697.93695323 </i>
   </energy>
  </scstep>
  <scstep>
   <time name="diag">    3.14    3.14</time>
   <time name="diis">   21.90   21.90</time>
   <time name="orth">    0.28    0.27</time>
   <time name="total">   28.06   28.07</time>
   <energy>
    <i name="e_fr_energy">    697.91750562 </i>
    <i name="e_wo_entrp">    697.96223128 </i>
    <i name="e_0_energy">    697.93241417 </i>
   </energy>
  </scstep>
  <scstep>
   <time name="diag">    3.14    3.13</time>
   <time name="diis">   22.10   22.14</time>
   <time name="orth">    0.27    0.28</time>
   <time name="total">   28.24   28.29</time>
   <energy>
    <i name="e_fr_energy">    697.91017672 </i>
    <i name="e_wo_entrp">    697.95539976 </i>
    <i name="e_0_energy">    697.92525107 </i>
   </energy>
  </scstep>
  <scstep>
   <time name="diag">    3.09    3.12</time>
   <time name="diis">   21.47   21.47</time>
   <time name="orth">    0.27    0.27</time>
   <time name="total">   27.49   27.54</time>
   <energy>
    <i name="e_fr_energy">    697.90607737 </i>
    <i name="e_wo_entrp">    697.95189504 </i>
    <i name="e_0_energy">    697.92134993 </i>
   </energy>
  </scstep>
  <scstep>
   <time name="diag">    3.17    3.17</time>
   <time name="diis">   21.55   21.58</time>
   <time name="orth">    0.27    0.27</time>
   <time name="total">   27.70   27.73</time>
   <energy>
    <i name="e_fr_energy">    697.90054744 </i>
    <i name="e_wo_entrp">    697.94593898 </i>
    <i name="e_0_energy">    697.91567795 </i>
   </energy>
  </scstep>
  <scstep>
   <time name="diag">    3.06    3.09</time>
   <time name="diis">   20.51   20.56</time>
   <time name="orth">    0.27    0.27</time>
   <time name="total">   26.54   26.62</time>
   <energy>
    <i name="e_fr_energy">    697.89505137 </i>
    <i name="e_wo_entrp">    697.94026599 </i>
    <i name="e_0_energy">    697.91012291 </i>
   </energy>
  </scstep>
  <scstep>
   <time name="diag">    3.18    3.18</time>
   <time name="diis">   16.01   16.01</time>
   <time name="orth">    0.27    0.27</time>
   <time name="total">   22.15   22.16</time>
   <energy>
    <i name="e_fr_energy">    697.88942881 </i>
    <i name="e_wo_entrp">    697.93463677 </i>
    <i name="e_0_energy">    697.90449813 </i>
   </energy>
  </scstep>
  <scstep>
   <time name="diag">    3.16    3.16</time>
   <time name="diis">   11.61   11.64</time>
   <time name="orth">    0.27    0.28</time>
   <time name="total">   17.76   17.81</time>
   <energy>
    <i name="e_fr_energy">    697.88400326 </i>
    <i name="e_wo_entrp">    697.92912710 </i>
    <i name="e_0_energy">    697.89904454 </i>
   </energy>
  </scstep>
  <scstep>
   <time name="diag">    3.15    3.15</time>
   <time name="diis">   11.75   11.76</time>
   <time name="orth">    0.27    0.27</time>
   <time name="total">   17.88   17.91</time>
   <energy>
    <i name="e_fr_energy">    697.87868175 </i>
    <i name="e_wo_entrp">    697.92384820 </i>
    <i name="e_0_energy">    697.89373723 </i>
   </energy>
  </scstep>
  <scstep>
   <time name="diag">    3.19    3.19</time>
   <time name="diis">   11.72   11.72</time>
   <time name="orth">    0.27    0.27</time>
   <time name="total">   17.91   17.91</time>
   <energy>
    <i name="e_fr_energy">    697.87329854 </i>
    <i name="e_wo_entrp">    697.91852238 </i>
    <i name="e_0_energy">    697.88837315 </i>
   </energy>
  </scstep>
  <scstep>
   <time name="diag">    3.14    3.14</time>
   <time name="diis">   13.53   13.53</time>
   <time name="orth">    0.27    0.27</time>
   <time name="total">   19.66   19.66</time>
   <energy>
    <i name="e_fr_energy">    697.86777152 </i>
    <i name="e_wo_entrp">    697.91291019 </i>
    <i name="e_0_energy">    697.88281774 </i>
   </energy>
  </scstep>
  <scstep>
   <time name="diag">    3.05    3.08</time>
   <time name="diis">   15.31   15.34</time>
   <time name="orth">    0.27    0.27</time>
   <time name="total">   21.37   21.44</time>
   <energy>
    <i name="e_fr_energy">    697.86335265 </i>
    <i name="e_wo_entrp">    697.90859675 </i>
    <i name="e_0_energy">    697.87843402 </i>
   </energy>
  </scstep>
  <scstep>
   <time name="diag">    3.19    3.19</time>
   <time name="diis">   16.49   16.49</time>
   <time name="orth">    0.27    0.27</time>
   <time name="total">   22.76   22.77</time>
   <energy>
    <i name="e_fr_energy">    697.85857364 </i>
    <i name="e_wo_entrp">    697.90390577 </i>
    <i name="e_0_energy">    697.87368435 </i>
   </energy>
  </scstep>
  <scstep>
   <time name="diag">    3.09    3.09</time>
   <time name="diis">   10.58   10.59</time>
   <time name="orth">    0.27    0.27</time>
   <time name="total">   16.78   16.80</time>
   <energy>
    <i name="e_fr_energy">    697.85379170 </i>
    <i name="e_wo_entrp">    697.89911611 </i>
    <i name="e_0_energy">    697.86889984 </i>
   </energy>
  </scstep>
  <scstep>
   <time name="diag">    3.02    3.06</time>
   <time name="diis">    9.13    9.15</time>
   <time name="orth">    0.27    0.27</time>
   <time name="total">   15.24   15.32</time>
   <energy>
    <i name="e_fr_energy">    697.84903978 </i>
    <i name="e_wo_entrp">    697.89430583 </i>
    <i name="e_0_energy">    697.86412846 </i>
   </energy>
  </scstep>
  <scstep>
   <time name="diag">    3.10    3.10</time>
   <time name="diis">    9.47    9.47</time>
   <time name="orth">    0.27    0.27</time>
   <time name="total">   15.66   15.66</time>
   <energy>
    <i name="e_fr_energy">    697.84441907 </i>
    <i name="e_wo_entrp">    697.88966993 </i>
    <i name="e_0_energy">    697.85950269 </i>
   </energy>
  </scstep>
  <scstep>
   <time name="diag">    3.07    3.07</time>
   <time name="diis">   11.15   11.15</time>
   <time name="orth">    0.27    0.27</time>
   <time name="total">   17.35   17.35</time>
   <energy>
    <i name="e_fr_energy">    697.83983162 </i>
    <i name="e_wo_entrp">    697.88508650 </i>
    <i name="e_0_energy">    697.85491658 </i>
   </energy>
  </scstep>
  <scstep>
   <time name="diag">    3.11    3.11</time>
   <time name="diis">   11.05   11.11</time>
   <time name="orth">    0.27    0.27</time>
   <time name="total">   17.28   17.36</time>
   <energy>
    <i name="e_fr_energy">    697.83523674 </i>
    <i name="e_wo_entrp">    697.88056735 </i>
    <i name="e_0_energy">    697.85034695 </i>
   </energy>
  </scstep>
  <scstep>
   <time name="diag">    3.16    3.16</time>
   <time name="diis">    9.79    9.79</time>
   <time name="orth">    0.27    0.27</time>
   <time name="total">   16.04   16.04</time>
   <energy>
    <i name="e_fr_energy">    697.83072300 </i>
    <i name="e_wo_entrp">    697.87606618 </i>
    <i name="e_0_energy">    697.84583739 </i>
   </energy>
  </scstep>
  <scstep>
   <time name="diag">    3.17    3.17</time>
   <time name="diis">    9.50    9.50</time>
   <time name="orth">    0.27    0.27</time>
   <time name="total">   15.80   15.80</time>
   <energy>
    <i name="e_fr_energy">    697.82639092 </i>
    <i name="e_wo_entrp">    697.87171178 </i>
    <i name="e_0_energy">    697.84149788 </i>
   </energy>
  </scstep>
  <scstep>
   <time name="diag">    3.18    3.18</time>
   <time name="diis">   10.06   10.06</time>
   <time name="orth">    0.27    0.27</time>
   <time name="total">   16.36   16.36</time>
   <energy>
    <i name="e_fr_energy">    697.82223032 </i>
    <i name="e_wo_entrp">    697.86750378 </i>
    <i name="e_0_energy">    697.83732148 </i>
   </energy>
  </scstep>
  <scstep>
   <time name="diag">    3.19    3.19</time>
   <time name="diis">   10.97   11.06</time>
   <time name="orth">    0.27    0.27</time>
   <time name="total">   17.27   17.36</time>
   <energy>
    <i name="e_fr_energy">    697.81807471 </i>
    <i name="e_wo_entrp">    697.86332638 </i>
    <i name="e_0_energy">    697.83315860 </i>
   </energy>
  </scstep>
  <scstep>
   <time name="diag">    3.16    3.16</time>
   <time name="diis">    9.78    9.78</time>
   <time name="orth">    0.27    0.27</time>
   <time name="total">   16.09   16.09</time>
   <energy>
    <i name="e_fr_energy">    697.81392774 </i>
    <i name="e_wo_entrp">    697.85917790 </i>
    <i name="e_0_energy">    697.82901113 </i>
   </energy>
  </scstep>
  <scstep>
   <time name="diag">    3.17    3.17</time>
   <time name="diis">    8.76    8.76</time>
   <time name="orth">    0.27    0.27</time>
   <time name="total">   15.08   15.08</time>
   <energy>
    <i name="e_fr_energy">    697.80989348 </i>
    <i name="e_wo_entrp">    697.85513121 </i>
    <i name="e_0_energy">    697.82497272 </i>
   </energy>
  </scstep>
  <scstep>
   <time name="diag">    3.16    3.16</time>
   <time name="diis">    8.22    8.22</time>
   <time name="orth">    0.27    0.27</time>
   <time name="total">   14.53   14.53</time>
   <energy>
    <i name="e_fr_energy">    697.80586452 </i>
    <i name="e_wo_entrp">    697.85110779 </i>
    <i name="e_0_energy">    697.82094561 </i>
   </energy>
  </scstep>
  <scstep>
   <time name="diag">    3.01    3.04</time>
   <time name="diis">    9.08    9.13</time>
   <time name="orth">    0.27    0.27</time>
   <time name="total">   15.24   15.32</time>
   <energy>
    <i name="e_fr_energy">    697.80195683 </i>
    <i name="e_wo_entrp">    697.84718350 </i>
    <i name="e_0_energy">    697.81703238 </i>
   </energy>
  </scstep>
  <scstep>
   <time name="diag">    3.19    3.19</time>
   <time name="diis">    8.76    8.76</time>
   <time name="orth">    0.27    0.27</time>
   <time name="total">   15.10   15.11</time>
   <energy>
    <i name="e_fr_energy">    697.79804812 </i>
    <i name="e_wo_entrp">    697.84327374 </i>
    <i name="e_0_energy">    697.81312333 </i>
   </energy>
  </scstep>
  <scstep>
   <time name="diag">    3.16    3.16</time>
   <time name="diis">    8.43    8.44</time>
   <time name="orth">    0.27    0.27</time>
   <time name="total">   14.77   14.77</time>
   <energy>
    <i name="e_fr_energy">    697.79417442 </i>
    <i name="e_wo_entrp">    697.83940382 </i>
    <i name="e_0_energy">    697.80925089 </i>
   </energy>
  </scstep>
  <scstep>
   <time name="diag">    3.14    3.14</time>
   <time name="diis">    8.11    8.11</time>
   <time name="orth">    0.27    0.27</time>
   <time name="total">   14.44   14.44</time>
   <energy>
    <i name="e_fr_energy">    697.79036353 </i>
    <i name="e_wo_entrp">    697.83558795 </i>
    <i name="e_0_energy">    697.80543834 </i>
   </energy>
  </scstep>
  <scstep>
   <time name="diag">    3.08    3.10</time>
   <time name="diis">    7.93    7.99</time>
   <time name="orth">    0.27    0.27</time>
   <time name="total">   14.22   14.31</time>
   <energy>
    <i name="e_fr_energy">    697.78658627 </i>
    <i name="e_wo_entrp">    697.83180684 </i>
    <i name="e_0_energy">    697.80165979 </i>
   </energy>
  </scstep>
  <scstep>
   <time name="diag">    3.16    3.16</time>
   <time name="diis">    7.98    7.98</time>
   <time name="orth">    0.27    0.27</time>
   <time name="total">   14.38   14.38</time>
   <energy>
    <i name="e_fr_energy">    697.78284437 </i>
    <i name="e_wo_entrp">    697.82807120 </i>
    <i name="e_0_energy">    697.79791998 </i>
   </energy>
  </scstep>
  <scstep>
   <time name="diag">    3.17    3.17</time>
   <time name="diis">    7.35    7.35</time>
   <time name="orth">    0.27    0.27</time>
   <time name="total">   13.76   13.76</time>
   <energy>
    <i name="e_fr_energy">    697.77915744 </i>
    <i name="e_wo_entrp">    697.82438342 </i>
    <i name="e_0_energy">    697.79423277 </i>
   </energy>
  </scstep>
  <scstep>
   <time name="diag">    3.17    3.17</time>
   <time name="diis">    7.04    7.04</time>
   <time name="orth">    0.27    0.27</time>
   <time name="total">   13.47   13.47</time>
   <energy>
    <i name="e_fr_energy">    697.77552368 </i>
    <i name="e_wo_entrp">    697.82074762 </i>
    <i name="e_0_energy">    697.79059833 </i>
   </energy>
  </scstep>
  <scstep>
   <time name="diag">    3.13    3.13</time>
   <time name="diis">    7.77    7.84</time>
   <time name="orth">    0.27    0.28</time>
   <time name="total">   14.15   14.24</time>
   <energy>
    <i name="e_fr_energy">    697.77194387 </i>
    <i name="e_wo_entrp">    697.81716286 </i>
    <i name="e_0_energy">    697.78701686 </i>
   </energy>
  </scstep>
  <scstep>
   <time name="diag">    3.15    3.15</time>
   <time name="diis">    7.53    7.54</time>
   <time name="orth">    0.27    0.27</time>
   <time name="total">   13.97   13.97</time>
   <energy>
    <i name="e_fr_energy">    697.76837454 </i>
    <i name="e_wo_entrp">    697.81359223 </i>
    <i name="e_0_energy">    697.78344710 </i>
   </energy>
  </scstep>
  <scstep>
   <time name="diag">    3.16    3.16</time>
   <time name="diis">    7.32    7.32</time>
   <time name="orth">    0.27    0.27</time>
   <time name="total">   13.75   13.75</time>
   <energy>
    <i name="e_fr_energy">    697.76483788 </i>
    <i name="e_wo_entrp">    697.81005633 </i>
    <i name="e_0_energy">    697.77991070 </i>
   </energy>
  </scstep>
  <scstep>
   <time name="diag">    3.15    3.15</time>
   <time name="diis">    7.27    7.27</time>
   <time name="orth">    0.27    0.27</time>
   <time name="total">   13.72   13.72</time>
   <energy>
    <i name="e_fr_energy">    697.76134494 </i>
    <i name="e_wo_entrp">    697.80656459 </i>
    <i name="e_0_energy">    697.77641816 </i>
   </energy>
  </scstep>
  <scstep>
   <time name="diag">    3.18    3.19</time>
   <time name="diis">    8.11    8.14</time>
   <time name="orth">    0.27    0.28</time>
   <time name="total">   14.62   14.67</time>
   <energy>
    <i name="e_fr_energy">    697.75793931 </i>
    <i name="e_wo_entrp">    697.80314649 </i>
    <i name="e_0_energy">    697.77300837 </i>
   </energy>
  </scstep>
  <scstep>
   <time name="diag">    3.10    3.12</time>
   <time name="diis">    8.44    8.44</time>
   <time name="orth">    0.27    0.28</time>
   <time name="total">   14.84   14.88</time>
   <energy>
    <i name="e_fr_energy">    697.75455808 </i>
    <i name="e_wo_entrp">    697.79974865 </i>
    <i name="e_0_energy">    697.76962160 </i>
   </energy>
  </scstep>
  <scstep>
   <time name="diag">    3.17    3.17</time>
   <time name="diis">    8.26    8.26</time>
   <time name="orth">    0.27    0.27</time>
   <time name="total">   14.76   14.77</time>
   <energy>
    <i name="e_fr_energy">    697.75113662 </i>
    <i name="e_wo_entrp">    697.79633415 </i>
    <i name="e_0_energy">    697.76620247 </i>
   </energy>
  </scstep>
  <scstep>
   <time name="diag">    3.15    3.15</time>
   <time name="diis">    8.76    8.76</time>
   <time name="orth">    0.27    0.27</time>
   <time name="total">   15.26   15.27</time>
   <energy>
    <i name="e_fr_energy">    697.74767517 </i>
    <i name="e_wo_entrp">    697.79289336 </i>
    <i name="e_0_energy">    697.76274790 </i>
   </energy>
  </scstep>
  <scstep>
   <time name="diag">    3.13    3.13</time>
   <time name="diis">    9.22    9.25</time>
   <time name="orth">    0.27    0.28</time>
   <time name="total">   15.72   15.77</time>
   <energy>
    <i name="e_fr_energy">    697.74429537 </i>
    <i name="e_wo_entrp">    697.78952068 </i>
    <i name="e_0_energy">    697.75937047 </i>
   </energy>
  </scstep>
  <scstep>
   <time name="diag">    3.17    3.19</time>
   <time name="diis">    9.94    9.94</time>
   <time name="orth">    0.27    0.27</time>
   <time name="total">   16.45   16.48</time>
   <energy>
    <i name="e_fr_energy">    697.74098024 </i>
    <i name="e_wo_entrp">    697.78620555 </i>
    <i name="e_0_energy">    697.75605534 </i>
   </energy>
  </scstep>
  <scstep>
   <time name="diag">    3.16    3.16</time>
   <time name="diis">    8.57    8.57</time>
   <time name="orth">    0.27    0.27</time>
   <time name="total">   15.06   15.06</time>
   <energy>
    <i name="e_fr_energy">    697.73768258 </i>
    <i name="e_wo_entrp">    697.78291325 </i>
    <i name="e_0_energy">    697.75275947 </i>
   </energy>
  </scstep>
  <scstep>
   <time name="diag">    3.17    3.17</time>
   <time name="diis">    7.99    7.99</time>
   <time name="orth">    0.27    0.27</time>
   <time name="total">   14.49   14.49</time>
   <energy>
    <i name="e_fr_energy">    697.73440892 </i>
    <i name="e_wo_entrp">    697.77963624 </i>
    <i name="e_0_energy">    697.74948469 </i>
   </energy>
  </scstep>
  <scstep>
   <time name="diag">    3.19    3.19</time>
   <time name="diis">    8.16    8.20</time>
   <time name="orth">    0.27    0.27</time>
   <time name="total">   14.68   14.74</time>
   <energy>
    <i name="e_fr_energy">    697.73117559 </i>
    <i name="e_wo_entrp">    697.77640328 </i>
    <i name="e_0_energy">    697.74625148 </i>
   </energy>
  </scstep>
  <scstep>
   <time name="diag">    3.14    3.15</time>
   <time name="diis">    8.34    8.34</time>
   <time name="orth">    0.27    0.27</time>
   <time name="total">   14.85   14.88</time>
   <energy>
    <i name="e_fr_energy">    697.72797436 </i>
    <i name="e_wo_entrp">    697.77319990 </i>
    <i name="e_0_energy">    697.74304954 </i>
   </energy>
  </scstep>
  <scstep>
   <time name="diag">    3.16    3.16</time>
   <time name="diis">    8.08    8.08</time>
   <time name="orth">    0.27    0.27</time>
   <time name="total">   14.59   14.59</time>
   <energy>
    <i name="e_fr_energy">    697.72480492 </i>
    <i name="e_wo_entrp">    697.77002764 </i>
    <i name="e_0_energy">    697.73987916 </i>
   </energy>
  </scstep>
  <scstep>
   <time name="diag">    3.18    3.18</time>
   <time name="diis">    8.78    8.79</time>
   <time name="orth">    0.27    0.27</time>
   <time name="total">   15.28   15.29</time>
   <energy>
    <i name="e_fr_energy">    697.72174654 </i>
    <i name="e_wo_entrp">    697.76694226 </i>
    <i name="e_0_energy">    697.73681178 </i>
   </energy>
  </scstep>
  <scstep>
   <time name="diag">    3.14    3.14</time>
   <time name="diis">    7.89    7.91</time>
   <time name="orth">    0.27    0.28</time>
   <time name="total">   14.35   14.40</time>
   <energy>
    <i name="e_fr_energy">    697.71859789 </i>
    <i name="e_wo_entrp">    697.76379686 </i>
    <i name="e_0_energy">    697.73366421 </i>
   </energy>
  </scstep>
  <scstep>
   <time name="diag">    3.17    3.19</time>
   <time name="diis">    8.05    8.05</time>
   <time name="orth">    0.27    0.27</time>
   <time name="total">   14.57   14.60</time>
   <energy>
    <i name="e_fr_energy">    697.71547112 </i>
    <i name="e_wo_entrp">    697.76067246 </i>
    <i name="e_0_energy">    697.73053823 </i>
   </energy>
  </scstep>
  <scstep>
   <time name="diag">    3.15    3.15</time>
   <time name="diis">    8.65    8.65</time>
   <time name="orth">    0.27    0.27</time>
   <time name="total">   15.19   15.20</time>
   <energy>
    <i name="e_fr_energy">    697.71236957 </i>
    <i name="e_wo_entrp">    697.75757228 </i>
    <i name="e_0_energy">    697.72743714 </i>
   </energy>
  </scstep>
  <scstep>
   <time name="diag">    3.17    3.17</time>
   <time name="diis">    8.61    8.61</time>
   <time name="orth">    0.27    0.27</time>
   <time name="total">   15.08   15.08</time>
   <energy>
    <i name="e_fr_energy">    697.70923123 </i>
    <i name="e_wo_entrp">    697.75445315 </i>
    <i name="e_0_energy">    697.72430521 </i>
   </energy>
  </scstep>
  <scstep>
   <time name="diag">    3.17    3.17</time>
   <time name="diis">   10.23   10.28</time>
   <time name="orth">    0.27    0.28</time>
   <time name="total">   16.72   16.78</time>
   <energy>
    <i name="e_fr_energy">    697.70596365 </i>
    <i name="e_wo_entrp">    697.75123385 </i>
    <i name="e_0_energy">    697.72105372 </i>
   </energy>
  </scstep>
  <scstep>
   <time name="diag">    3.17    3.17</time>
   <time name="diis">    8.87    8.87</time>
   <time name="orth">    0.27    0.27</time>
   <time name="total">   15.37   15.39</time>
   <energy>
    <i name="e_fr_energy">    697.70349762 </i>
    <i name="e_wo_entrp">    697.74866385 </i>
    <i name="e_0_energy">    697.71855303 </i>
   </energy>
  </scstep>
  <scstep>
   <time name="diag">    3.16    3.16</time>
   <time name="diis">   11.44   11.44</time>
   <time name="orth">    0.27    0.27</time>
   <time name="total">   17.94   17.95</time>
   <energy>
    <i name="e_fr_energy">    697.70079578 </i>
    <i name="e_wo_entrp">    697.74591298 </i>
    <i name="e_0_energy">    697.71583485 </i>
   </energy>
  </scstep>
  <scstep>
   <time name="diag">    3.19    3.19</time>
   <time name="diis">    8.82    8.82</time>
   <time name="orth">    0.27    0.27</time>
   <time name="total">   13.74   13.74</time>
   <energy>
    <i name="alphaZ">    658.81366564 </i>
    <i name="ewald">  76761.99277312 </i>
    <i name="hartreedc">-118291.20313473 </i>
    <i name="XCdc">   1884.89035562 </i>
    <i name="pawpsdc">  33288.71819711 </i>
    <i name="pawaedc"> -32496.39793329 </i>
    <i name="eentropy">     -0.04511215 </i>
    <i name="bandstr"> -10370.36003708 </i>
    <i name="atom">  49261.28908022 </i>
    <i name="e_fr_energy">    697.69785447 </i>
    <i name="e_wo_entrp">    697.74296662 </i>
    <i name="e_0_energy">    697.71289186 </i>
   </energy>
  </scstep>
  <structure>
   <crystal>
    <varray name="basis" >
     <v>      18.00000000       0.00000000       0.00000000 </v>
     <v>       0.00000000      18.00000000       0.00000000 </v>
     <v>       0.00000000       0.00000000      18.00000000 </v>
    </varray>
    <i name="volume">   5832.00000000 </i>
    <varray name="rec_basis" >
     <v>       0.05555556       0.00000000       0.00000000 </v>
     <v>       0.00000000       0.05555556       0.00000000 </v>
     <v>       0.00000000       0.00000000       0.05555556 </v>
    </varray>
   </crystal>
   <varray name="positions" >
    <v>       0.74633634       0.62631003       0.50871056 </v>
    <v>       0.62214688       0.74504004       0.50557179 </v>
    <v>       0.25429247       0.61582513       0.50497621 </v>
    <v>       0.37282732       0.74294839       0.50930743 </v>
    <v>       0.25206158       0.38101188       0.50900619 </v>
    <v>       0.37173092       0.25513443       0.50801466 </v>
    <v>       0.74908264       0.38416939       0.50638659 </v>
    <v>       0.63179485       0.25544952       0.51139063 </v>
    <v>       0.69014412       0.49452566       0.59116225 </v>
    <v>       0.31116600       0.50064648       0.59333658 </v>
    <v>       0.50405235       0.68412759       0.59641590 </v>
    <v>       0.49379641       0.31188939       0.59364884 </v>
    <v>       0.68536458       0.66622438       0.61669143 </v>
    <v>       0.32686382       0.68147995       0.61507532 </v>
    <v>       0.31444202       0.33184832       0.61749456 </v>
    <v>       0.67143059       0.31757792       0.61695186 </v>
    <v>       0.68906801       0.49893350       0.40490569 </v>
    <v>       0.31165444       0.50215853       0.40272752 </v>
    <v>       0.50205023       0.68755804       0.40450789 </v>
    <v>       0.49882554       0.30624856       0.39986673 </v>
    <v>       0.67328227       0.67606256       0.38014848 </v>
    <v>       0.32731601       0.67631624       0.37813918 </v>
    <v>       0.32486921       0.32352555       0.38010574 </v>
    <v>       0.67810349       0.32635293       0.38056724 </v>
    <v>       0.57505128       0.59290914       0.68982402 </v>
    <v>       0.40852905       0.57816604       0.70143864 </v>
    <v>       0.42242463       0.40700761       0.68931931 </v>
    <v>       0.59073076       0.42197766       0.70094481 </v>
    <v>       0.59017130       0.60105791       0.31354935 </v>
    <v>       0.40088217       0.59316848       0.31243826 </v>
    <v>       0.39667555       0.40753333       0.31303516 </v>
    <v>       0.60943141       0.41266337       0.31248542 </v>
    <v>       0.49983170       0.49838299       0.59670510 </v>
    <v>       0.41215395       0.41157196       0.49516103 </v>
    <v>       0.41350494       0.58671322       0.49563947 </v>
    <v>       0.49975976       0.49789502       0.38587179 </v>
    <v>       0.58802071       0.58526761       0.49704978 </v>
    <v>       0.58652402       0.41003366       0.49498660 </v>
    <v>       0.49860668       0.49928760       0.73044198 </v>
   </varray>
  </structure>
  <varray name="forces" >
   <v>       0.61701346      -0.19994348      -0.91441889 </v>
   <v>       0.40561008       0.62182299      -0.44835110 </v>
   <v>      -0.85228589       0.69914860      -0.80559466 </v>
   <v>       0.13762459       0.54589194      -0.91814589 </v>
   <v>      -0.58182424      -0.17584094      -0.94118343 </v>
   <v>      -0.27440298      -0.38860532      -0.68395261 </v>
   <v>       0.62149857      -0.58969024      -0.70357024 </v>
   <v>      -0.14173160      -0.44243498      -0.87850902 </v>
   <v>      -0.45759031       0.06924414       0.76709142 </v>
   <v>       0.64007880       0.05515328       0.66710256 </v>
   <v>      -0.37091583       0.17629226       0.41023128 </v>
   <v>       0.37952075      -0.00578315       0.40047492 </v>
   <v>      -0.45771470       0.23309102       0.71702338 </v>
   <v>       0.07256120      -0.75697723       1.21641982 </v>
   <v>       0.59453006      -0.10497996       0.60475383 </v>
   <v>      -0.09547353       0.54756532       1.04444007 </v>
   <v>       0.82461745       0.23694046       0.17238944 </v>
   <v>      -0.54218936      -0.29016706       0.60100791 </v>
   <v>      -0.00791789       0.71432716       0.24457375 </v>
   <v>      -0.17881451       0.13764431       0.42139339 </v>
   <v>       0.19816351       0.62153301       0.35423110 </v>
   <v>      -0.59692414       0.16177311       0.36644226 </v>
   <v>      -0.22359680      -0.44470251       0.49531569 </v>
   <v>       0.59243494      -0.41979832       0.45152634 </v>
   <v>       0.79678050      -0.13415519       0.59977084 </v>
   <v>      -0.15156658       0.33102578      -0.43038283 </v>
   <v>      -0.70635735       0.00612438       0.46620337 </v>
   <v>       0.08353697      -0.33834959      -0.36356372 </v>
   <v>      -0.33326314      -0.97484012      -0.81524064 </v>
   <v>       0.87555489      -0.38968988      -0.74827276 </v>
   <v>       0.80907372       0.55955475      -0.66805116 </v>
   <v>      -1.21642698       0.43258842      -0.62008423 </v>
   <v>      -0.27216889      -0.10296489      -0.47763210 </v>
   <v>       0.06170089      -0.13049800       0.04602904 </v>
   <v>      -0.01836237      -0.17111538       0.26077274 </v>
   <v>      -0.05422443      -0.06288863      -0.04631731 </v>
   <v>      -0.00472559       0.01352908       0.13142616 </v>
   <v>      -0.15049186      -0.08120149       0.13528202 </v>
   <v>      -0.02133141       0.04137636      -0.11063073 </v>
  </varray>
  <energy>
   <i name="e_fr_energy">    697.69785447 </i>
   <i name="e_wo_entrp">    697.71289186 </i>
   <i name="e_0_energy">     -0.04511215 </i>
  </energy>
  <time name="totalsc"> 1055.80 1057.42</time>
 </calculation>
 <calculation>
  <scstep>
   <time name="diag">    3.14    3.17</time>
   <time name="diis">   13.72   13.73</time>
   <time name="orth">    0.27    0.27</time>
   <time name="total">   19.86   19.90</time>
   <energy>
    <i name="alphaZ">    658.81366564 </i>
    <i name="ewald">  76108.04227383 </i>
    <i name="hartreedc">-117660.28673802 </i>
    <i name="XCdc">   1883.25848463 </i>
    <i name="pawpsdc">  33288.71822461 </i>
    <i name="pawaedc"> -32496.39796535 </i>
    <i name="eentropy">     -0.00631218 </i>
    <i name="bandstr"> -10348.64823769 </i>
    <i name="atom">  49261.28908022 </i>
    <i name="e_fr_energy">    694.78247569 </i>
    <i name="e_wo_entrp">    694.78878787 </i>
    <i name="e_0_energy">    694.78457975 </i>
   </energy>
  </scstep>
  <scstep>
   <time name="diag">    3.17    3.17</time>
[...]
      </set>
     </set>
    </set>
   </array>
  </eigenvalues>
  <separator name="orbital magnetization" >
   <v name="MAGDIPOLOUT">      0.00000000      0.00000000      0.00000000</v>
  </separator>
  <dos>
   <i name="efermi">     -2.13761278 </i>
   <total>
    <array>
     <dimension dim="1">gridpoints</dimension>
     <dimension dim="2">spin</dimension>
     <field>energy</field>
     <field>total</field>
     <field>integrated</field>
     <set>
      <set comment="spin 1">
       <r>   -57.2297     0.0000     0.0000 </r>
       <r>   -56.8608     0.0000     0.0000 </r>
       <r>   -56.4920     0.0000     0.0000 </r>
       <r>   -56.1232     0.0000     0.0000 </r>
       <r>   -55.7543     0.0000     0.0000 </r>
       <r>   -55.3855     0.0000     0.0000 </r>
       <r>   -55.0166     0.0000     0.0000 </r>
       <r>   -54.6478     0.0000     0.0000 </r>
       <r>   -54.2789     0.0000     0.0000 </r>
       <r>   -53.9101     0.0000     0.0000 </r>
       <r>   -53.5412     0.0000     0.0000 </r>
       <r>   -53.1724     0.0000     0.0000 </r>
       <r>   -52.8035    -0.0011    -0.0004 </r>
       <r>   -52.4347    -1.2237    -0.4518 </r>
       <r>   -52.0658    36.9532    13.1783 </r>
       <r>   -51.6970    96.3308    48.7096 </r>
       <r>   -51.3281    -1.9023    48.0079 </r>
       <r>   -50.9593    -0.0215    48.0000 </r>
       <r>   -50.5905     0.0000    48.0000 </r>
       <r>   -50.2216    -0.2560    47.9056 </r>
       <r>   -49.8528     8.9489    51.2064 </r>
       <r>   -49.4839    13.0830    56.0320 </r>
       <r>   -49.1151    -0.0828    56.0014 </r>
       <r>   -48.7462    -0.0038    56.0000 </r>
       <r>   -48.3774     0.0000    56.0000 </r>
       <r>   -48.0085     0.0000    56.0000 </r>
       <r>   -47.6397     0.0000    56.0000 </r>
       <r>   -47.2708     0.0000    56.0000 </r>
       <r>   -46.9020     0.0000    56.0000 </r>
       <r>   -46.5331     0.0000    56.0000 </r>
       <r>   -46.1643     0.0000    56.0000 </r>
       <r>   -45.7955     0.0000    56.0000 </r>
       <r>   -45.4266     0.0000    56.0000 </r>
       <r>   -45.0578     0.0000    56.0000 </r>
       <r>   -44.6889     0.0000    56.0000 </r>
       <r>   -44.3201     0.0000    56.0000 </r>
       <r>   -43.9512     0.0000    56.0000 </r>
       <r>   -43.5824     0.0000    56.0000 </r>
       <r>   -43.2135     0.0000    56.0000 </r>
       <r>   -42.8447     0.0000    56.0000 </r>
       <r>   -42.4758     0.0000    56.0000 </r>
       <r>   -42.1070     0.0000    56.0000 </r>
       <r>   -41.7381     0.0000    56.0000 </r>
       <r>   -41.3693     0.0000    56.0000 </r>
       <r>   -41.0004     0.0000    56.0000 </r>
       <r>   -40.6316     0.0000    56.0000 </r>
       <r>   -40.2628     0.0000    56.0000 </r>
       <r>   -39.8939     0.0000    56.0000 </r>
       <r>   -39.5251     0.0000    56.0000 </r>
       <r>   -39.1562     0.0000    56.0000 </r>
       <r>   -38.7874     0.0000    56.0000 </r>
       <r>   -38.4185     0.0000    56.0000 </r>
       <r>   -38.0497     0.0000    56.0000 </r>
       <r>   -37.6808     0.0000    56.0000 </r>
       <r>   -37.3120     0.0000    56.0000 </r>
       <r>   -36.9431     0.0000    56.0000 </r>
       <r>   -36.5743     0.0000    56.0000 </r>
       <r>   -36.2054     0.0000    56.0000 </r>
       <r>   -35.8366     0.0000    56.0000 </r>
       <r>   -35.4678     0.0000    56.0000 </r>
       <r>   -35.0989     0.0000    56.0000 </r>
       <r>   -34.7301     0.0000    56.0000 </r>
       <r>   -34.3612     0.0000    56.0000 </r>
       <r>   -33.9924     0.0000    56.0000 </r>
       <r>   -33.6235     0.0000    56.0000 </r>
       <r>   -33.2547     0.0000    56.0000 </r>
       <r>   -32.8858     0.0000    56.0000 </r>
       <r>   -32.5170     0.0000    56.0000 </r>
       <r>   -32.1481     0.0000    56.0000 </r>
       <r>   -31.7793     0.0000    56.0000 </r>
       <r>   -31.4104    -0.0321    55.9882 </r>
       <r>   -31.0416     0.5625    56.1957 </r>
       <r>   -30.6727    46.2596    73.2583 </r>
       <r>   -30.3039    94.1720   107.9933 </r>
       <r>   -29.9351   110.8147   148.8669 </r>
       <r>   -29.5662   165.7005   209.9850 </r>
       <r>   -29.1974    99.8637   246.8193 </r>
       <r>   -28.8285    36.8227   260.4013 </r>
       <r>   -28.4597     1.7223   261.0365 </r>
       <r>   -28.0908    17.2160   267.3866 </r>
       <r>   -27.7220    33.2646   279.6561 </r>
       <r>   -27.3531    12.1862   284.1510 </r>
       <r>   -26.9843    -0.4082   284.0004 </r>
       <r>   -26.6154    -0.0010   284.0000 </r>
       <r>   -26.2466     0.0000   284.0000 </r>
       <r>   -25.8777     0.0000   284.0000 </r>
       <r>   -25.5089     0.0000   284.0000 </r>
       <r>   -25.1401     0.0000   284.0000 </r>
       <r>   -24.7712     0.0000   284.0000 </r>
       <r>   -24.4024     0.0000   284.0000 </r>
       <r>   -24.0335     0.0000   284.0000 </r>
       <r>   -23.6647     0.0000   284.0000 </r>
       <r>   -23.2958     0.0000   284.0000 </r>
       <r>   -22.9270     0.0000   284.0000 </r>
       <r>   -22.5581     0.0000   284.0000 </r>
       <r>   -22.1893     0.0000   284.0000 </r>
       <r>   -21.8204    -0.0070   283.9974 </r>
       <r>   -21.4516     0.3639   284.1317 </r>
       <r>   -21.0827     5.2574   286.0709 </r>
       <r>   -20.7139    -0.1917   286.0001 </r>
       <r>   -20.3450    -0.0004   286.0000 </r>
       <r>   -19.9762     0.0000   286.0000 </r>
       <r>   -19.6074     0.0000   286.0000 </r>
       <r>   -19.2385     0.0000   286.0000 </r>
       <r>   -18.8697     0.0000   286.0000 </r>
       <r>   -18.5008     0.0000   286.0000 </r>
       <r>   -18.1320     0.0000   286.0000 </r>
       <r>   -17.7631     0.0000   286.0000 </r>
       <r>   -17.3943     0.0000   286.0000 </r>
       <r>   -17.0254     0.0000   286.0000 </r>
       <r>   -16.6566     0.0000   286.0000 </r>
       <r>   -16.2877     0.0000   286.0000 </r>
       <r>   -15.9189     0.0000   286.0000 </r>
       <r>   -15.5500     0.0000   286.0000 </r>
       <r>   -15.1812     0.0000   286.0000 </r>
       <r>   -14.8124     0.0000   286.0000 </r>
       <r>   -14.4435     0.0000   286.0000 </r>
       <r>   -14.0747     0.0000   286.0000 </r>
       <r>   -13.7058     0.0000   286.0000 </r>
       <r>   -13.3370     0.0000   286.0000 </r>
       <r>   -12.9681     0.0000   286.0000 </r>
       <r>   -12.5993     0.0000   286.0000 </r>
       <r>   -12.2304     0.0000   286.0000 </r>
       <r>   -11.8616     0.0000   286.0000 </r>
       <r>   -11.4927     0.0000   286.0000 </r>
       <r>   -11.1239     0.0000   286.0000 </r>
       <r>   -10.7550     0.0000   286.0000 </r>
       <r>   -10.3862     0.0000   286.0000 </r>
       <r>   -10.0174     0.0000   286.0000 </r>
       <r>    -9.6485     0.0000   286.0000 </r>
       <r>    -9.2797     0.0000   286.0000 </r>
       <r>    -8.9108     0.0000   286.0000 </r>
       <r>    -8.5420    -0.0036   285.9987 </r>
       <r>    -8.1731    -0.1542   285.9418 </r>
       <r>    -7.8043    11.0228   290.0075 </r>
       <r>    -7.4354     4.1363   291.5332 </r>
       <r>    -7.0666     1.2890   292.0086 </r>
       <r>    -6.6977    -0.0439   291.9924 </r>
       <r>    -6.3289     1.1587   292.4198 </r>
       <r>    -5.9600     4.4368   294.0563 </r>
       <r>    -5.5912    -0.3676   293.9207 </r>
       <r>    -5.2223    11.5235   298.1712 </r>
       <r>    -4.8535    20.2266   305.6317 </r>
       <r>    -4.4847    47.5218   323.1599 </r>
       <r>    -4.1158    43.4465   339.1850 </r>
       <r>    -3.7470    55.3428   359.5980 </r>
       <r>    -3.3781    90.1103   392.8349 </r>
       <r>    -3.0093    62.9475   416.0528 </r>
       <r>    -2.6404    55.0078   436.3423 </r>
       <r>    -2.2716    57.3061   457.4794 </r>
       <r>    -1.9027    38.6652   471.7409 </r>
       <r>    -1.5339    39.5936   486.3449 </r>
       <r>    -1.1650    64.5549   510.1557 </r>
       <r>    -0.7962    82.8005   540.6964 </r>
       <r>    -0.4273    31.7257   552.3983 </r>
       <r>    -0.0585    -1.0785   552.0005 </r>
       <r>     0.3103    -0.0013   552.0000 </r>
       <r>     0.6792     0.0000   552.0000 </r>
       <r>     1.0480     0.0000   552.0000 </r>
       <r>     1.4169     0.0000   552.0000 </r>
       <r>     1.7857     0.0000   552.0000 </r>
       <r>     2.1546     0.0000   552.0000 </r>
       <r>     2.5234     0.0000   552.0000 </r>
       <r>     2.8923     0.0000   552.0000 </r>
       <r>     3.2611     0.0000   552.0000 </r>
       <r>     3.6300     0.0000   552.0000 </r>
       <r>     3.9988     0.0000   552.0000 </r>
       <r>     4.3677     0.0000   552.0000 </r>
       <r>     4.7365     0.0000   552.0000 </r>
       <r>     5.1054     0.0000   552.0000 </r>
       <r>     5.4742     0.0000   552.0000 </r>
       <r>     5.8430     0.0000   552.0000 </r>
       <r>     6.2119     0.0000   552.0000 </r>
       <r>     6.5807     0.0000   552.0000 </r>
       <r>     6.9496     0.0000   552.0000 </r>
       <r>     7.3184     0.0000   552.0000 </r>
       <r>     7.6873     0.0000   552.0000 </r>
       <r>     8.0561     0.0000   552.0000 </r>
       <r>     8.4250     0.0000   552.0000 </r>
       <r>     8.7938     0.0000   552.0000 </r>
       <r>     9.1627     0.0000   552.0000 </r>
       <r>     9.5315     0.0000   552.0000 </r>
       <r>     9.9004     0.0000   552.0000 </r>
       <r>    10.2692     0.0000   552.0000 </r>
       <r>    10.6380     0.0000   552.0000 </r>
       <r>    11.0069     0.0000   552.0000 </r>
       <r>    11.3757     0.0000   552.0000 </r>
       <r>    11.7446     0.0000   552.0000 </r>
       <r>    12.1134     0.0000   552.0000 </r>
       <r>    12.4823     0.0000   552.0000 </r>
       <r>    12.8511     0.0000   552.0000 </r>
       <r>    13.2200     0.0000   552.0000 </r>
       <r>    13.5888     0.0000   552.0000 </r>
       <r>    13.9577     0.0000   552.0000 </r>
       <r>    14.3265     0.0000   552.0000 </r>
       <r>    14.6954     0.0000   552.0000 </r>
       <r>    15.0642     0.0000   552.0000 </r>
       <r>    15.4331     0.0000   552.0000 </r>
       <r>    15.8019     0.0000   552.0000 </r>
       <r>    16.1707     0.0000   552.0000 </r>
       <r>    16.5396     0.0000   552.0000 </r>
       <r>    16.9084     0.0000   552.0000 </r>
       <r>    17.2773     0.0000   552.0000 </r>
       <r>    17.6461     0.0000   552.0000 </r>
       <r>    18.0150     0.0000   552.0000 </r>
       <r>    18.3838     0.0000   552.0000 </r>
       <r>    18.7527     0.0000   552.0000 </r>
       <r>    19.1215     0.0000   552.0000 </r>
       <r>    19.4904     0.0000   552.0000 </r>
       <r>    19.8592     0.0000   552.0000 </r>
       <r>    20.2281     0.0000   552.0000 </r>
       <r>    20.5969     0.0000   552.0000 </r>
       <r>    20.9657     0.0000   552.0000 </r>
       <r>    21.3346     0.0000   552.0000 </r>
       <r>    21.7034     0.0000   552.0000 </r>
       <r>    22.0723     0.0000   552.0000 </r>
       <r>    22.4411     0.0000   552.0000 </r>
       <r>    22.8100     0.0000   552.0000 </r>
       <r>    23.1788     0.0000   552.0000 </r>
       <r>    23.5477     0.0000   552.0000 </r>
       <r>    23.9165     0.0000   552.0000 </r>
       <r>    24.2854     0.0000   552.0000 </r>
       <r>    24.6542     0.0000   552.0000 </r>
       <r>    25.0231     0.0000   552.0000 </r>
       <r>    25.3919     0.0000   552.0000 </r>
       <r>    25.7608     0.0000   552.0000 </r>
       <r>    26.1296     0.0000   552.0000 </r>
       <r>    26.4984     0.0000   552.0000 </r>
       <r>    26.8673     0.0000   552.0000 </r>
       <r>    27.2361     0.0000   552.0000 </r>
       <r>    27.6050     0.0000   552.0000 </r>
       <r>    27.9738     0.0000   552.0000 </r>
       <r>    28.3427     0.0000   552.0000 </r>
       <r>    28.7115     0.0000   552.0000 </r>
       <r>    29.0804     0.0000   552.0000 </r>
       <r>    29.4492     0.0000   552.0000 </r>
       <r>    29.8181     0.0000   552.0000 </r>
       <r>    30.1869     0.0000   552.0000 </r>
       <r>    30.5558     0.0000   552.0000 </r>
       <r>    30.9246     0.0000   552.0000 </r>
       <r>    31.2934     0.0000   552.0000 </r>
       <r>    31.6623     0.0000   552.0000 </r>
       <r>    32.0311     0.0000   552.0000 </r>
       <r>    32.4000     0.0000   552.0000 </r>
       <r>    32.7688     0.0000   552.0000 </r>
       <r>    33.1377     0.0000   552.0000 </r>
       <r>    33.5065     0.0000   552.0000 </r>
       <r>    33.8754     0.0000   552.0000 </r>
       <r>    34.2442     0.0000   552.0000 </r>
       <r>    34.6131     0.0000   552.0000 </r>
       <r>    34.9819     0.0000   552.0000 </r>
       <r>    35.3508     0.0000   552.0000 </r>
       <r>    35.7196     0.0000   552.0000 </r>
       <r>    36.0885     0.0000   552.0000 </r>
       <r>    36.4573     0.0000   552.0000 </r>
       <r>    36.8261     0.0000   552.0000 </r>
       <r>    37.1950     0.0000   552.0000 </r>
       <r>    37.5638     0.0000   552.0000 </r>
       <r>    37.9327     0.0000   552.0000 </r>
       <r>    38.3015     0.0000   552.0000 </r>
       <r>    38.6704     0.0000   552.0000 </r>
       <r>    39.0392     0.0000   552.0000 </r>
       <r>    39.4081     0.0000   552.0000 </r>
       <r>    39.7769     0.0000   552.0000 </r>
       <r>    40.1458     0.0000   552.0000 </r>
       <r>    40.5146     0.0000   552.0000 </r>
       <r>    40.8835     0.0000   552.0000 </r>
       <r>    41.2523     0.0000   552.0000 </r>
       <r>    41.6211     0.0000   552.0000 </r>
       <r>    41.9900     0.0000   552.0000 </r>
       <r>    42.3588     0.0000   552.0000 </r>
       <r>    42.7277     0.0000   552.0000 </r>
       <r>    43.0965     0.0000   552.0000 </r>
       <r>    43.4654     0.0000   552.0000 </r>
       <r>    43.8342     0.0000   552.0000 </r>
       <r>    44.2031     0.0000   552.0000 </r>
       <r>    44.5719    -0.0171   551.9937 </r>
       <r>    44.9408     0.9915   552.3594 </r>
       <r>    45.3096     4.6143   554.0614 </r>
       <r>    45.6785    -0.1663   554.0000 </r>
       <r>    46.0473    -0.0001   554.0000 </r>
       <r>    46.4162     0.0000   554.0000 </r>
       <r>    46.7850     0.0000   554.0000 </r>
       <r>    47.1538     0.0000   554.0000 </r>
       <r>    47.5227     0.0000   554.0000 </r>
       <r>    47.8915    -0.0059   553.9978 </r>
       <r>    48.2604     0.2813   554.1016 </r>
       <r>    48.6292     5.3368   556.0701 </r>
       <r>    48.9981    -0.1895   556.0002 </r>
       <r>    49.3669    -0.0005   556.0000 </r>
       <r>    49.7358     0.0000   556.0000 </r>
       <r>    50.1046     0.0000   556.0000 </r>
       <r>    50.4735     0.0000   556.0000 </r>
       <r>    50.8423     0.0000   556.0000 </r>
       <r>    51.2112     0.0000   556.0000 </r>
       <r>    51.5800     0.0000   556.0000 </r>
       <r>    51.9488     0.0000   556.0000 </r>
       <r>    52.3177     0.0000   556.0000 </r>
       <r>    52.6865     0.0000   556.0000 </r>
       <r>    53.0554     0.0000   556.0000 </r>
       <r>    53.4242     0.0000   556.0000 </r>
      </set>
     </set>
    </array>
   </total>
  </dos>
 </calculation>
 <structure name="finalpos" >
  <crystal>
   <varray name="basis" >
    <v>      18.00000000       0.00000000       0.00000000 </v>
    <v>       0.00000000      18.00000000       0.00000000 </v>
    <v>       0.00000000       0.00000000      18.00000000 </v>
   </varray>
   <i name="volume">   5832.00000000 </i>
   <varray name="rec_basis" >
    <v>       0.05555556       0.00000000       0.00000000 </v>
    <v>       0.00000000       0.05555556       0.00000000 </v>
    <v>       0.00000000       0.00000000       0.05555556 </v>
   </varray>
  </crystal>
  <varray name="positions" >
   <v>       0.74778271       0.62738928       0.50466706 </v>
   <v>       0.62843773       0.74747898       0.50018740 </v>
   <v>       0.25261003       0.62609341       0.50089811 </v>
   <v>       0.37114136       0.74679154       0.50307117 </v>
   <v>       0.25240374       0.37272150       0.50227173 </v>
   <v>       0.37078040       0.25302945       0.49974863 </v>
   <v>       0.74733339       0.37250755       0.50028793 </v>
   <v>       0.62781489       0.25291945       0.50321471 </v>
   <v>       0.68883852       0.49841302       0.59818294 </v>
   <v>       0.31183687       0.49934748       0.59580761 </v>
   <v>       0.50179780       0.68901173       0.59773066 </v>
   <v>       0.49666959       0.31140589       0.59571240 </v>
   <v>       0.67896107       0.67275608       0.62019100 </v>
   <v>       0.32676479       0.67719600       0.61997087 </v>
   <v>       0.32118577       0.32542845       0.61847628 </v>
   <v>       0.67213663       0.32107094       0.61961488 </v>
   <v>       0.69248787       0.50185402       0.40445655 </v>
   <v>       0.30904306       0.49767460       0.40514034 </v>
   <v>       0.50008184       0.69253769       0.40392110 </v>
   <v>       0.49884188       0.30887581       0.40498073 </v>
   <v>       0.67252113       0.67749934       0.38050493 </v>
   <v>       0.32444056       0.67198748       0.37942425 </v>
   <v>       0.32675374       0.32380425       0.37935920 </v>
   <v>       0.67629341       0.32898407       0.37946907 </v>
   <v>       0.58645394       0.58465434       0.69528636 </v>
   <v>       0.41366974       0.58620489       0.69477056 </v>
   <v>       0.41266392       0.41378316       0.69406233 </v>
   <v>       0.58558577       0.41237402       0.69508881 </v>
   <v>       0.58500956       0.58806048       0.31066789 </v>
   <v>       0.41283204       0.58706005       0.30951159 </v>
   <v>       0.41478661       0.41331544       0.31057532 </v>
   <v>       0.58798044       0.41477823       0.30989071 </v>
   <v>       0.49931306       0.49916802       0.59849489 </v>
   <v>       0.41170493       0.41181065       0.49893749 </v>
   <v>       0.41230194       0.58820209       0.49973231 </v>
   <v>       0.49969767       0.49966404       0.39848652 </v>
   <v>       0.58844503       0.58814353       0.50006279 </v>
   <v>       0.58790063       0.41193239       0.49968189 </v>
   <v>       0.49969591       0.49907066       0.73146095 </v>
  </varray>
  <varray name="selective"  type="logical" >
   <v type="logical" >  T  T  T </v>
   <v type="logical" >  T  T  T </v>
   <v type="logical" >  T  T  T </v>
   <v type="logical" >  T  T  T </v>
   <v type="logical" >  T  T  T </v>
   <v type="logical" >  T  T  T </v>
   <v type="logical" >  T  T  T </v>
   <v type="logical" >  T  T  T </v>
   <v type="logical" >  T  T  T </v>
   <v type="logical" >  T  T  T </v>
   <v type="logical" >  T  T  T </v>
   <v type="logical" >  T  T  T </v>
   <v type="logical" >  T  T  T </v>
   <v type="logical" >  T  T  T </v>
   <v type="logical" >  T  T  T </v>
   <v type="logical" >  T  T  T </v>
   <v type="logical" >  T  T  T </v>
   <v type="logical" >  T  T  T </v>
   <v type="logical" >  T  T  T </v>
   <v type="logical" >  T  T  T </v>
   <v type="logical" >  T  T  T </v>
   <v type="logical" >  T  T  T </v>
   <v type="logical" >  T  T  T </v>
   <v type="logical" >  T  T  T </v>
   <v type="logical" >  T  T  T </v>
   <v type="logical" >  T  T  T </v>
   <v type="logical" >  T  T  T </v>
   <v type="logical" >  T  T  T </v>
   <v type="logical" >  T  T  T </v>
   <v type="logical" >  T  T  T </v>
   <v type="logical" >  T  T  T </v>
   <v type="logical" >  T  T  T </v>
   <v type="logical" >  T  T  T </v>
   <v type="logical" >  T  T  T </v>
   <v type="logical" >  T  T  T </v>
   <v type="logical" >  T  T  T </v>
   <v type="logical" >  T  T  T </v>
   <v type="logical" >  T  T  T </v>
   <v type="logical" >  T  T  T </v>
  </varray>
  <nose>
   <v>      -3.00000000       0.00000000       0.00010000       0.00010000 </v>
  </nose>
 </structure>
</modeling>
