Pt cube particle                        
           1
    18.000000    0.000000    0.000000
     0.000000   18.000000    0.000000
     0.000000    0.000000   18.000000
   Zr   O 
  38   1
Direct configuration=     1
   0.74591087  0.62642104  0.50931903
   0.62192258  0.74459204  0.50581794
   0.25488259  0.61542620  0.50550188
   0.37272956  0.74256994  0.50989580
   0.25247802  0.38108898  0.50959880
   0.37186981  0.25542809  0.50845366
   0.74867704  0.38449618  0.50683671
   0.63189047  0.25575434  0.51199218
   0.69042860  0.49447892  0.59069895
   0.31076356  0.50064173  0.59289734
   0.50429272  0.68402833  0.59616055
   0.49356684  0.31188475  0.59341013
   0.68565156  0.66609612  0.61619587
   0.32680341  0.68189283  0.61426749
   0.31411057  0.33188431  0.61705079
   0.67147554  0.31726545  0.61625578
   0.68857118  0.49876829  0.40477299
   0.31202063  0.50233542  0.40233458
   0.50205658  0.68713481  0.40433065
   0.49890083  0.30618320  0.39963493
   0.67311175  0.67568685  0.37995185
   0.32770514  0.67616032  0.37788729
   0.32504045  0.32382870  0.37981980
   0.67775816  0.32659772  0.38032938
   0.57458435  0.59298967  0.68942463
   0.40861812  0.57798936  0.70165438
   0.42283615  0.40700559  0.68902431
   0.59068980  0.42214577  0.70109167
   0.59035938  0.60165599  0.31410142
   0.40032152  0.59340359  0.31294478
   0.39619760  0.40720527  0.31347613
   0.61014283  0.41249416  0.31291874
   0.49998794  0.49841381  0.59702712
   0.41207662  0.41162474  0.49511780
   0.41346651  0.58685376  0.49548004
   0.49976048  0.49793387  0.38590756
   0.58805848  0.58530653  0.49697834
   0.58666633  0.41007289  0.49493695
   0.49861543  0.49926046  0.73050175
Direct configuration=     2
   0.74633634  0.62631003  0.50871056
   0.62214688  0.74504004  0.50557179
   0.25429247  0.61582513  0.50497621
   0.37282732  0.74294839  0.50930743
   0.25206158  0.38101188  0.50900619
   0.37173092  0.25513443  0.50801466
   0.74908264  0.38416939  0.50638659
   0.63179485  0.25544952  0.51139063
   0.69014412  0.49452566  0.59116225
   0.31116600  0.50064648  0.59333658
   0.50405235  0.68412759  0.59641590
   0.49379641  0.31188939  0.59364884
   0.68536458  0.66622438  0.61669143
   0.32686382  0.68147995  0.61507532
   0.31444202  0.33184832  0.61749456
   0.67143059  0.31757792  0.61695186
   0.68906801  0.49893350  0.40490569
   0.31165444  0.50215853  0.40272752
   0.50205023  0.68755804  0.40450789
   0.49882554  0.30624856  0.39986673
   0.67328227  0.67606256  0.38014848
   0.32731601  0.67631624  0.37813918
   0.32486921  0.32352555  0.38010574
   0.67810349  0.32635293  0.38056724
   0.57505128  0.59290914  0.68982402
   0.40852905  0.57816604  0.70143864
   0.42242463  0.40700761  0.68931931
   0.59073076  0.42197766  0.70094481
   0.59017130  0.60105791  0.31354935
   0.40088217  0.59316848  0.31243826
   0.39667555  0.40753333  0.31303516
   0.60943141  0.41266337  0.31248542
   0.49983170  0.49838299  0.59670510
   0.41215395  0.41157196  0.49516103
   0.41350494  0.58671322  0.49563947
   0.49975976  0.49789502  0.38587179
   0.58802071  0.58526761  0.49704978
   0.58652402  0.41003366  0.49498660
   0.49860668  0.49928760  0.73044198
Direct configuration=     3
   0.74761275  0.62597700  0.50688513
   0.62281979  0.74638404  0.50483334
   0.25252214  0.61702192  0.50339920
   0.37312061  0.74408374  0.50754234
   0.25081226  0.38078056  0.50722835
   0.37131425  0.25425343  0.50669768
   0.75029947  0.38318903  0.50503625
   0.63150798  0.25453506  0.50958599
   0.68929068  0.49466588  0.59255213
   0.31237332  0.50066073  0.59465428
   0.50333124  0.68442537  0.59718198
   0.49448514  0.31190331  0.59436495
   0.68450366  0.66660913  0.61817809
   0.32704504  0.68024131  0.61749883
   0.31543634  0.33174037  0.61882586
   0.67129573  0.31851533  0.61904011
   0.69055850  0.49942914  0.40530379
   0.31055589  0.50162787  0.40390631
   0.50203117  0.68882771  0.40503962
   0.49859966  0.30644464  0.40056212
   0.67379383  0.67718967  0.38073838
   0.32614861  0.67678400  0.37889485
   0.32435547  0.32261610  0.38096357
   0.67913948  0.32561856  0.38128080
   0.57645207  0.59266754  0.69102218
   0.40826184  0.57869606  0.70079143
   0.42119004  0.40701368  0.69020432
   0.59085365  0.42147334  0.70050422
   0.58960707  0.59926369  0.31189313
   0.40256413  0.59246317  0.31091873
   0.39810941  0.40851752  0.31171224
   0.60729712  0.41317103  0.31118546
   0.49936297  0.49829054  0.59573904
   0.41238594  0.41141362  0.49529072
   0.41362024  0.58629159  0.49611777
   0.49975760  0.49777847  0.38576447
   0.58790741  0.58515085  0.49726409
   0.58609708  0.40991596  0.49513556
   0.49858041  0.49936904  0.73026270
Direct configuration=     4
   0.75016557  0.62531095  0.50323427
   0.62416562  0.74907203  0.50335645
   0.24898146  0.61941551  0.50024517
   0.37370719  0.74635443  0.50401215
   0.24831361  0.38031792  0.50367267
   0.37048092  0.25249144  0.50406370
   0.75273311  0.38122831  0.50233556
   0.63093425  0.25270614  0.50597670
   0.68758381  0.49494632  0.59533189
   0.31478797  0.50068924  0.59728969
   0.50188902  0.68502093  0.59871412
   0.49586259  0.31193115  0.59579717
   0.68278181  0.66737864  0.62115142
   0.32740749  0.67776404  0.62234584
   0.31742500  0.33152446  0.62148847
   0.67102601  0.32039015  0.62321661
   0.69353948  0.50042042  0.40609998
   0.30835880  0.50056656  0.40626391
   0.50199305  0.69136705  0.40610307
   0.49814790  0.30683681  0.40195290
   0.67481695  0.67944391  0.38191817
   0.32381382  0.67771952  0.38040619
   0.32332800  0.32079720  0.38267924
   0.68121147  0.32414982  0.38270792
   0.57925365  0.59218435  0.69341850
   0.40772741  0.57975611  0.69949701
   0.41872087  0.40702583  0.69197435
   0.59109942  0.42046469  0.69962305
   0.58847861  0.59567524  0.30858070
   0.40592805  0.59105254  0.30787965
   0.40097714  0.41048590  0.30906640
   0.60302855  0.41418633  0.30858554
   0.49842551  0.49810564  0.59380693
   0.41284992  0.41109695  0.49555010
   0.41385082  0.58544833  0.49707437
   0.49975327  0.49754537  0.38554983
   0.58768082  0.58491731  0.49769272
   0.58524320  0.40968056  0.49543347
   0.49852787  0.49953192  0.72990413
Direct configuration=     5
   0.74945222  0.62549707  0.50425445
   0.62378955  0.74832092  0.50376914
   0.24997085  0.61874666  0.50112651
   0.37354328  0.74571992  0.50499861
   0.24901182  0.38044719  0.50466625
   0.37071378  0.25298380  0.50479972
   0.75205307  0.38177620  0.50309023
   0.63109457  0.25321721  0.50698526
   0.68806077  0.49486795  0.59455513
   0.31411323  0.50068128  0.59655326
   0.50229203  0.68485451  0.59828599
   0.49547768  0.31192337  0.59539696
   0.68326295  0.66716361  0.62032057
   0.32730621  0.67845627  0.62099142
   0.31686930  0.33158479  0.62074445
   0.67110138  0.31986626  0.62204955
   0.69270650  0.50014342  0.40587750
   0.30897274  0.50086313  0.40560512
   0.50200371  0.69065747  0.40580590
   0.49827414  0.30672722  0.40156427
   0.67453105  0.67881400  0.38158850
   0.32446624  0.67745811  0.37998387
   0.32361511  0.32130546  0.38219982
   0.68063248  0.32456024  0.38230914
   0.57847079  0.59231937  0.69274888
   0.40787675  0.57945990  0.69985871
   0.41941084  0.40702243  0.69147974
   0.59103075  0.42074654  0.69986928
   0.58879394  0.59667797  0.30950630
   0.40498805  0.59144671  0.30872887
   0.40017580  0.40993587  0.30980574
   0.60422133  0.41390262  0.30931205
   0.49868747  0.49815731  0.59434683
   0.41272027  0.41118544  0.49547762
   0.41378639  0.58568397  0.49680706
   0.49975448  0.49761051  0.38560981
   0.58774414  0.58498257  0.49757295
   0.58548180  0.40974634  0.49535022
   0.49854255  0.49948641  0.73000433
Direct configuration=     6
   0.74905195  0.62543303  0.50414957
   0.62424225  0.74807351  0.50350583
   0.25033855  0.61946580  0.50077303
   0.37334078  0.74534226  0.50495283
   0.24940482  0.38008019  0.50449710
   0.37028909  0.25314570  0.50436670
   0.75167446  0.38103126  0.50273052
   0.63119899  0.25348030  0.50688358
   0.68788672  0.49501381  0.59500275
   0.31406953  0.50072994  0.59672338
   0.50216052  0.68511511  0.59837501
   0.49577143  0.31178281  0.59555874
   0.68293057  0.66735783  0.62023699
   0.32741785  0.67783593  0.62117411
   0.31734256  0.33135153  0.62065231
   0.67094854  0.32031172  0.62209935
   0.69332733  0.50020105  0.40567398
   0.30857651  0.50068318  0.40567473
   0.50188533  0.69124396  0.40564498
   0.49816329  0.30685167  0.40171201
   0.67429983  0.67896064  0.38177441
   0.32438371  0.67715553  0.38033183
   0.32367830  0.32127836  0.38235695
   0.68077604  0.32465232  0.38255533
   0.57891747  0.59166083  0.69295649
   0.40821000  0.57988737  0.69916183
   0.41904040  0.40750905  0.69172159
   0.59067076  0.42040163  0.69914995
   0.58864793  0.59589017  0.30932457
   0.40559954  0.59102735  0.30860126
   0.40107728  0.41032226  0.30970964
   0.60300898  0.41427221  0.30930794
   0.49867288  0.49803065  0.59539604
   0.41217801  0.41071551  0.49557398
   0.41304752  0.58630622  0.49693801
   0.49973368  0.49760179  0.38583698
   0.58823396  0.58574680  0.49772279
   0.58627002  0.40954339  0.49541988
   0.49853259  0.49950733  0.72977303
Direct configuration=     7
   0.74809084  0.62527926  0.50389774
   0.62532926  0.74747946  0.50287359
   0.25122147  0.62119257  0.49992427
   0.37285454  0.74443543  0.50484291
   0.25034848  0.37919898  0.50409095
   0.36926936  0.25353446  0.50332696
   0.75076539  0.37924257  0.50186681
   0.63144971  0.25411201  0.50663943
   0.68746882  0.49536402  0.59607754
   0.31396461  0.50084679  0.59713183
   0.50184477  0.68574083  0.59858875
   0.49647677  0.31144532  0.59594719
   0.68213248  0.66782418  0.62003631
   0.32768592  0.67634640  0.62161279
   0.31847891  0.33079144  0.62043109
   0.67058155  0.32138131  0.62221893
   0.69481803  0.50033942  0.40518531
   0.30762510  0.50025111  0.40584187
   0.50160110  0.69265221  0.40525857
   0.49789714  0.30715049  0.40206675
   0.67374462  0.67931273  0.38222081
   0.32418555  0.67642899  0.38116734
   0.32383003  0.32121327  0.38273425
   0.68112075  0.32487342  0.38314646
   0.57998999  0.59007961  0.69345499
   0.40901018  0.58091380  0.69748852
   0.41815091  0.40867747  0.69230229
   0.58980639  0.41957348  0.69742276
   0.58829734  0.59399857  0.30888819
   0.40706781  0.59002039  0.30829485
   0.40324187  0.41125003  0.30947889
   0.60009797  0.41515964  0.30929807
   0.49863785  0.49772654  0.59791535
   0.41087596  0.40958713  0.49580535
   0.41127339  0.58780034  0.49725243
   0.49968373  0.49758087  0.38638245
   0.58941010  0.58758182  0.49808258
   0.58816263  0.40905608  0.49558715
   0.49850868  0.49955757  0.72921767
Direct configuration=     8
   0.74770652  0.62532864  0.50416156
   0.62594974  0.74725207  0.50265566
   0.25165310  0.62211726  0.49992733
   0.37232635  0.74436380  0.50525919
   0.25079178  0.37849846  0.50428774
   0.36868524  0.25359285  0.50296778
   0.75030042  0.37818873  0.50178794
   0.63169511  0.25419932  0.50688416
   0.68764785  0.49571400  0.59645019
   0.31339670  0.50075873  0.59699239
   0.50194334  0.68617625  0.59856914
   0.49661985  0.31123928  0.59588571
   0.68178964  0.66818604  0.61993819
   0.32758103  0.67586541  0.62147293
   0.31899883  0.33021721  0.62017532
   0.67060729  0.32171501  0.62191946
   0.69525308  0.50038714  0.40465522
   0.30735076  0.49995540  0.40544755
   0.50132835  0.69311177  0.40470757
   0.49789269  0.30737167  0.40215082
   0.67338656  0.67932316  0.38194630
   0.32421628  0.67592875  0.38113336
   0.32391288  0.32133810  0.38228757
   0.68107820  0.32518865  0.38298423
   0.58067469  0.58929467  0.69371426
   0.40960138  0.58172975  0.69672915
   0.41755110  0.40924293  0.69282469
   0.58930191  0.41872946  0.69660795
   0.58813391  0.59306628  0.30897478
   0.40780442  0.58937787  0.30839336
   0.40463675  0.41166742  0.30961128
   0.59835980  0.41563191  0.30956660
   0.49873535  0.49776735  0.59744398
   0.41124176  0.41013363  0.49627943
   0.41159533  0.58756473  0.49754969
   0.49966908  0.49777668  0.38791660
   0.58891005  0.58752307  0.49837881
   0.58819976  0.40988380  0.49584124
   0.49847310  0.49959273  0.72952087
Direct configuration=     9
   0.74655357  0.62547677  0.50495302
   0.62781116  0.74656991  0.50200188
   0.25294802  0.62489134  0.49993652
   0.37074179  0.74414890  0.50650802
   0.25212168  0.37639691  0.50487810
   0.36693289  0.25376805  0.50189024
   0.74890551  0.37502721  0.50155131
   0.63243131  0.25446127  0.50761834
   0.68818496  0.49676395  0.59756813
   0.31169296  0.50049454  0.59657405
   0.50223907  0.68748252  0.59851030
   0.49704908  0.31062117  0.59570124
   0.68076110  0.66927164  0.61964384
   0.32726636  0.67442244  0.62105333
   0.32055860  0.32849451  0.61940800
   0.67068451  0.32271612  0.62102104
   0.69655823  0.50053028  0.40306495
   0.30652771  0.49906828  0.40426456
   0.50051012  0.69449045  0.40305456
   0.49787934  0.30803518  0.40240303
   0.67231239  0.67935446  0.38112278
   0.32430846  0.67442801  0.38103143
   0.32416144  0.32171256  0.38094752
   0.68095053  0.32613435  0.38249754
   0.58272879  0.58693986  0.69449209
   0.41137501  0.58417759  0.69445104
   0.41575169  0.41093929  0.69439191
   0.58778845  0.41619740  0.69416350
   0.58764361  0.59026943  0.30923455
   0.41001425  0.58745032  0.30868890
   0.40882139  0.41291960  0.31000847
   0.59314531  0.41704873  0.31037220
   0.49902787  0.49788978  0.59602987
   0.41233918  0.41177312  0.49770169
   0.41256117  0.58685791  0.49844145
   0.49962513  0.49836412  0.39251908
   0.58740989  0.58734684  0.49926750
   0.58831114  0.41236698  0.49660351
   0.49836635  0.49969821  0.73043045
Direct configuration=    10
   0.74673396  0.62556853  0.50511899
   0.62826230  0.74659006  0.50152734
   0.25270202  0.62533418  0.50016800
   0.37058831  0.74499574  0.50661700
   0.25209016  0.37558500  0.50464329
   0.36706119  0.25390033  0.50127031
   0.74902795  0.37426192  0.50154924
   0.63204427  0.25416860  0.50723808
   0.68868772  0.49745650  0.59757758
   0.31136546  0.50010448  0.59620783
   0.50225068  0.68796795  0.59836893
   0.49700899  0.31081083  0.59517851
   0.68036977  0.66975034  0.61996950
   0.32678764  0.67463459  0.62085882
   0.32101086  0.32768340  0.61948158
   0.67118810  0.32256254  0.62081758
   0.69591795  0.50093763  0.40305612
   0.30694488  0.49862425  0.40413844
   0.50016274  0.69405987  0.40283712
   0.49807500  0.30842005  0.40303539
   0.67182526  0.67890353  0.38096805
   0.32451230  0.67378064  0.38086248
   0.32458882  0.32240032  0.38077865
   0.68019164  0.32694930  0.38233619
   0.58347104  0.58602193  0.69452979
   0.41252000  0.58455039  0.69413600
   0.41527175  0.41196016  0.69460672
   0.58668070  0.41526902  0.69396522
   0.58724311  0.58944027  0.30916776
   0.41091851  0.58670087  0.30861544
   0.41053151  0.41334260  0.30998290
   0.59125549  0.41710700  0.31035133
   0.49901264  0.49824751  0.59693973
   0.41222771  0.41166491  0.49758057
   0.41294689  0.58682811  0.49825010
   0.49960465  0.49913126  0.39526842
   0.58746361  0.58735371  0.49868675
   0.58811037  0.41231873  0.49679185
   0.49834405  0.49961294  0.73052240
Direct configuration=    11
   0.74678964  0.62559686  0.50517023
   0.62840157  0.74659628  0.50138085
   0.25262608  0.62547089  0.50023946
   0.37054094  0.74525716  0.50665064
   0.25208044  0.37533436  0.50457080
   0.36710079  0.25394116  0.50107894
   0.74906575  0.37402568  0.50154860
   0.63192479  0.25407826  0.50712069
   0.68884292  0.49767029  0.59758050
   0.31126436  0.49998407  0.59609478
   0.50225426  0.68811780  0.59832529
   0.49699662  0.31086938  0.59501714
   0.68024897  0.66989811  0.62007003
   0.32663986  0.67470008  0.62079877
   0.32115048  0.32743300  0.61950430
   0.67134356  0.32251513  0.62075477
   0.69572030  0.50106338  0.40305339
   0.30707366  0.49848718  0.40409951
   0.50005550  0.69392696  0.40276999
   0.49813540  0.30853886  0.40323060
   0.67167489  0.67876433  0.38092028
   0.32457523  0.67358079  0.38081032
   0.32472075  0.32261263  0.38072652
   0.67995738  0.32720088  0.38228638
   0.58370017  0.58573856  0.69454142
   0.41287346  0.58466548  0.69403875
   0.41512360  0.41227531  0.69467303
   0.58633874  0.41498243  0.69390400
   0.58711947  0.58918430  0.30914714
   0.41119766  0.58646951  0.30859276
   0.41105943  0.41347317  0.30997501
   0.59067210  0.41712499  0.31034489
   0.49900794  0.49835794  0.59722060
   0.41219330  0.41163150  0.49754318
   0.41306596  0.58681891  0.49819103
   0.49959833  0.49936808  0.39611714
   0.58748019  0.58735583  0.49850748
   0.58804839  0.41230384  0.49684999
   0.49833716  0.49958661  0.73055079
Direct configuration=    12
   0.74690101  0.62565352  0.50527270
   0.62868010  0.74660871  0.50108786
   0.25247421  0.62574430  0.50038238
   0.37044618  0.74578000  0.50671792
   0.25206098  0.37483309  0.50442583
   0.36718001  0.25402283  0.50069619
   0.74914134  0.37355319  0.50154732
   0.63168583  0.25389757  0.50688592
   0.68915332  0.49809788  0.59758633
   0.31106215  0.49974325  0.59586868
   0.50226143  0.68841751  0.59823801
   0.49697186  0.31098648  0.59469441
   0.68000736  0.67019366  0.62027109
   0.32634430  0.67483106  0.62067867
   0.32142971  0.32693222  0.61954973
   0.67165447  0.32242031  0.62062915
   0.69532499  0.50131488  0.40304794
   0.30733121  0.49821304  0.40402164
   0.49984103  0.69366112  0.40263574
   0.49825620  0.30877647  0.40362102
   0.67137413  0.67848593  0.38082475
   0.32470108  0.67318110  0.38070601
   0.32498461  0.32303725  0.38062226
   0.67948884  0.32770402  0.38218676
   0.58415844  0.58517183  0.69456470
   0.41358038  0.58489565  0.69384424
   0.41482729  0.41290559  0.69480565
   0.58565481  0.41440925  0.69378158
   0.58687220  0.58867238  0.30910589
   0.41175595  0.58600680  0.30854741
   0.41211526  0.41373433  0.30995922
   0.58950532  0.41716097  0.31033201
   0.49899854  0.49857881  0.59778235
   0.41212448  0.41156469  0.49746840
   0.41330410  0.58680051  0.49807289
   0.49958568  0.49984171  0.39781459
   0.58751336  0.58736007  0.49814892
   0.58792444  0.41227406  0.49696628
   0.49832339  0.49953396  0.73060756
Direct configuration=    13
   0.74749292  0.62591783  0.50526673
   0.62876029  0.74663840  0.50063924
   0.25247110  0.62577860  0.50053959
   0.37062946  0.74626069  0.50615577
   0.25161768  0.37420206  0.50392518
   0.36797383  0.25387166  0.50022415
   0.74911551  0.37325526  0.50138277
   0.63092283  0.25349359  0.50595943
   0.68913524  0.49843617  0.59726267
   0.31150448  0.49937823  0.59537550
   0.50203956  0.68855106  0.59781620
   0.49691009  0.31136407  0.59425507
   0.67964026  0.67057489  0.62047195
   0.32609108  0.67532177  0.62033194
   0.32159123  0.32641946  0.61971301
   0.67213455  0.32214977  0.62060944
   0.69409699  0.50169780  0.40348287
   0.30803076  0.49787657  0.40426290
   0.49954716  0.69296043  0.40279788
   0.49860929  0.30898425  0.40427591
   0.67130439  0.67812297  0.38073404
   0.32479494  0.67266104  0.38061348
   0.32534195  0.32378137  0.38045919
   0.67857637  0.32865950  0.38184921
   0.58529485  0.58498538  0.69460094
   0.41383409  0.58558329  0.69413484
   0.41387855  0.41315243  0.69463971
   0.58524522  0.41335378  0.69424524
   0.58612160  0.58790706  0.30919875
   0.41253490  0.58550081  0.30874670
   0.41366646  0.41427948  0.31010237
   0.58810177  0.41693374  0.31035091
   0.49918746  0.49877182  0.59754940
   0.41171514  0.41156637  0.49777403
   0.41239885  0.58778974  0.49858025
   0.49967549  0.49996173  0.39811716
   0.58829730  0.58772053  0.49845649
   0.58818909  0.41179957  0.49797000
   0.49852725  0.49933683  0.73112909
Direct configuration=    14
   0.74761859  0.62597394  0.50526546
   0.62877732  0.74664470  0.50054399
   0.25247045  0.62578588  0.50057297
   0.37066836  0.74636274  0.50603642
   0.25152357  0.37406809  0.50381889
   0.36814237  0.25383957  0.50012393
   0.74911002  0.37319201  0.50134784
   0.63076084  0.25340783  0.50576273
   0.68913140  0.49850799  0.59719395
   0.31159839  0.49930073  0.59527080
   0.50199246  0.68857942  0.59772665
   0.49689698  0.31144424  0.59416179
   0.67956232  0.67065582  0.62051459
   0.32603733  0.67542595  0.62025833
   0.32162552  0.32631060  0.61974768
   0.67223647  0.32209234  0.62060525
   0.69383628  0.50177910  0.40357521
   0.30817927  0.49780513  0.40431411
   0.49948477  0.69281167  0.40283230
   0.49868426  0.30902837  0.40441494
   0.67128959  0.67804591  0.38071479
   0.32481486  0.67255062  0.38059384
   0.32541781  0.32393935  0.38042458
   0.67838265  0.32886235  0.38177755
   0.58553612  0.58494580  0.69460864
   0.41388795  0.58572928  0.69419653
   0.41367713  0.41320483  0.69460448
   0.58515826  0.41312970  0.69434368
   0.58596224  0.58774459  0.30921847
   0.41270027  0.58539339  0.30878901
   0.41399578  0.41439521  0.31013276
   0.58780379  0.41688550  0.31035493
   0.49922756  0.49881279  0.59749995
   0.41162824  0.41156672  0.49783891
   0.41220667  0.58799976  0.49868796
   0.49969456  0.49998720  0.39818140
   0.58846373  0.58779706  0.49852178
   0.58824528  0.41169883  0.49818309
   0.49857053  0.49929498  0.73123981
Direct configuration=    15
   0.74786992  0.62608617  0.50526292
   0.62881137  0.74665731  0.50035350
   0.25246913  0.62580045  0.50063973
   0.37074618  0.74656685  0.50579773
   0.25133534  0.37380015  0.50360631
   0.36847943  0.25377538  0.49992350
   0.74909905  0.37306550  0.50127797
   0.63043687  0.25323630  0.50536933
   0.68912372  0.49865163  0.59705652
   0.31178620  0.49914574  0.59506139
   0.50189825  0.68863613  0.59754754
   0.49687075  0.31160457  0.59397524
   0.67940645  0.67081769  0.62059988
   0.32592981  0.67563431  0.62011111
   0.32169410  0.32609288  0.61981701
   0.67244032  0.32197746  0.62059688
   0.69331486  0.50194169  0.40375989
   0.30847631  0.49766226  0.40441655
   0.49935999  0.69251416  0.40290114
   0.49883418  0.30911659  0.40469301
   0.67125997  0.67789180  0.38067627
   0.32485471  0.67232980  0.38055456
   0.32556954  0.32425530  0.38035534
   0.67799521  0.32926805  0.38163423
   0.58601865  0.58486663  0.69462403
   0.41399568  0.58602126  0.69431992
   0.41327429  0.41330964  0.69453402
   0.58498435  0.41268154  0.69454055
   0.58564353  0.58741963  0.30925790
   0.41303102  0.58517854  0.30887363
   0.41465444  0.41462668  0.31019354
   0.58720783  0.41678902  0.31036296
   0.49930778  0.49889475  0.59740104
   0.41145444  0.41156744  0.49796868
   0.41182229  0.58841979  0.49890339
   0.49973269  0.50003816  0.39830987
   0.58879660  0.58795011  0.49865237
   0.58835765  0.41149736  0.49860928
   0.49865709  0.49921128  0.73146125
Direct configuration=    16
   0.74770222  0.62601128  0.50526462
   0.62878865  0.74664890  0.50048061
   0.25247001  0.62579073  0.50059518
   0.37069426  0.74643066  0.50595699
   0.25146094  0.37397893  0.50374815
   0.36825452  0.25381821  0.50005724
   0.74910637  0.37314991  0.50132459
   0.63065304  0.25335075  0.50563182
   0.68912885  0.49855578  0.59714822
   0.31166088  0.49924916  0.59520112
   0.50196111  0.68859829  0.59766705
   0.49688825  0.31149759  0.59409972
   0.67951045  0.67070968  0.62054297
   0.32600155  0.67549529  0.62020934
   0.32164834  0.32623816  0.61977075
   0.67230430  0.32205411  0.62060247
   0.69366278  0.50183320  0.40363667
   0.30827811  0.49775759  0.40434820
   0.49944325  0.69271267  0.40285520
   0.49873415  0.30905772  0.40450747
   0.67127973  0.67799463  0.38070197
   0.32482812  0.67247714  0.38058077
   0.32546830  0.32404448  0.38040154
   0.67825373  0.32899735  0.38172986
   0.58569668  0.58491945  0.69461376
   0.41392380  0.58582644  0.69423759
   0.41354309  0.41323971  0.69458104
   0.58510039  0.41298057  0.69440919
   0.58585619  0.58763645  0.30923159
   0.41281033  0.58532190  0.30881717
   0.41421495  0.41447223  0.31015299
   0.58760548  0.41685340  0.31035760
   0.49925426  0.49884006  0.59746703
   0.41157041  0.41156696  0.49788209
   0.41207877  0.58813952  0.49875965
   0.49970725  0.50000416  0.39822415
   0.58857450  0.58784799  0.49856524
   0.58828267  0.41163179  0.49832491
   0.49859934  0.49926713  0.73131349
Direct configuration=    17
   0.74806421  0.62632572  0.50509806
   0.62869618  0.74675657  0.50044737
   0.25237694  0.62582769  0.50057960
   0.37077030  0.74651134  0.50520877
   0.25146550  0.37375062  0.50350817
   0.36871606  0.25364571  0.50016047
   0.74868679  0.37316976  0.50116701
   0.63030445  0.25329304  0.50505008
   0.68886988  0.49828424  0.59723178
   0.31199793  0.49916871  0.59526076
   0.50182317  0.68843300  0.59755004
   0.49684339  0.31152369  0.59437359
   0.67953163  0.67107328  0.62054105
   0.32596931  0.67590692  0.62046760
   0.32152182  0.32613284  0.61955502
   0.67244632  0.32184196  0.62068310
   0.69327529  0.50183741  0.40388073
   0.30847480  0.49771771  0.40454540
   0.49951587  0.69255599  0.40301821
   0.49883692  0.30898929  0.40467486
   0.67160477  0.67800989  0.38046358
   0.32458839  0.67246832  0.38013930
   0.32556898  0.32423312  0.38007667
   0.67802134  0.32911848  0.38109684
   0.58593701  0.58489750  0.69456748
   0.41385891  0.58601122  0.69436566
   0.41315310  0.41317186  0.69417330
   0.58522653  0.41277660  0.69461622
   0.58568395  0.58772685  0.30941310
   0.41273147  0.58577450  0.30898985
   0.41422968  0.41422052  0.31024971
   0.58783937  0.41626485  0.31033593
   0.49929164  0.49896302  0.59770226
   0.41165212  0.41193247  0.49824251
   0.41225513  0.58801250  0.49913378
   0.49976054  0.49979431  0.39816097
   0.58825782  0.58780102  0.49916253
   0.58833595  0.41188149  0.49884034
   0.49881656  0.49919598  0.73126830
Direct configuration=    18
   0.74820893  0.62645142  0.50503148
   0.62865921  0.74679962  0.50043408
   0.25233974  0.62584247  0.50057338
   0.37080071  0.74654359  0.50490963
   0.25146732  0.37365934  0.50341223
   0.36890058  0.25357675  0.50020174
   0.74851904  0.37317770  0.50110402
   0.63016509  0.25326997  0.50481751
   0.68876635  0.49817569  0.59726519
   0.31213268  0.49913655  0.59528460
   0.50176803  0.68836693  0.59750327
   0.49682545  0.31153413  0.59448308
   0.67954010  0.67121865  0.62054027
   0.32595642  0.67607148  0.62057084
   0.32147123  0.32609073  0.61946877
   0.67250309  0.32175715  0.62071534
   0.69312037  0.50183910  0.40397831
   0.30855344  0.49770177  0.40462423
   0.49954490  0.69249335  0.40308338
   0.49887801  0.30896193  0.40474178
   0.67173471  0.67801599  0.38036827
   0.32449254  0.67246479  0.37996280
   0.32560923  0.32430853  0.37994679
   0.67792844  0.32916691  0.38084376
   0.58603309  0.58488872  0.69454898
   0.41383296  0.58608510  0.69441687
   0.41299719  0.41314473  0.69401030
   0.58527696  0.41269505  0.69469899
   0.58561509  0.58776300  0.30948567
   0.41269994  0.58595545  0.30905889
   0.41423557  0.41411989  0.31028838
   0.58793287  0.41602956  0.31032727
   0.49930658  0.49901217  0.59779630
   0.41168479  0.41207860  0.49838660
   0.41232563  0.58796172  0.49928335
   0.49978185  0.49971042  0.39813571
   0.58813122  0.58778224  0.49940133
   0.58835725  0.41198131  0.49904640
   0.49890341  0.49916753  0.73125023
Direct configuration=    19
   0.74849837  0.62670284  0.50489831
   0.62858528  0.74688571  0.50040750
   0.25226532  0.62587203  0.50056092
   0.37086151  0.74660810  0.50431137
   0.25147097  0.37347679  0.50322035
   0.36926961  0.25343882  0.50028429
   0.74818355  0.37319357  0.50097802
   0.62988638  0.25322382  0.50435236
   0.68855929  0.49795857  0.59733200
   0.31240218  0.49907222  0.59533229
   0.50165774  0.68823477  0.59740971
   0.49678957  0.31155500  0.59470206
   0.67955703  0.67150937  0.62053873
   0.32593064  0.67640061  0.62077734
   0.32137006  0.32600652  0.61929628
   0.67261664  0.32158752  0.62077981
   0.69281054  0.50184246  0.40417346
   0.30871071  0.49766988  0.40478190
   0.49960297  0.69236808  0.40321371
   0.49896018  0.30890722  0.40487563
   0.67199460  0.67802819  0.38017766
   0.32430085  0.67245774  0.37960981
   0.32568973  0.32445936  0.37968703
   0.67774263  0.32926376  0.38033761
   0.58622524  0.58487117  0.69451197
   0.41378108  0.58623285  0.69451927
   0.41268537  0.41309048  0.69368428
   0.58537782  0.41253195  0.69486452
   0.58547736  0.58783528  0.30963081
   0.41263688  0.58631734  0.30919697
   0.41424734  0.41391862  0.31036572
   0.58811988  0.41555897  0.31030994
   0.49933647  0.49911049  0.59798439
   0.41175012  0.41237086  0.49867478
   0.41246665  0.58786015  0.49958250
   0.49982446  0.49954262  0.39808519
   0.58787802  0.58774469  0.49987891
   0.58839985  0.41218096  0.49945852
   0.49907710  0.49911065  0.73121409
Direct configuration=    20
   0.74831558  0.62654406  0.50498241
   0.62863197  0.74683134  0.50042428
   0.25231232  0.62585336  0.50056879
   0.37082311  0.74656736  0.50468919
   0.25146867  0.37359208  0.50334153
   0.36903655  0.25352592  0.50023216
   0.74839543  0.37318355  0.50105759
   0.63006240  0.25325296  0.50464612
   0.68869005  0.49809569  0.59728980
   0.31223198  0.49911285  0.59530217
   0.50172739  0.68831823  0.59746879
   0.49681223  0.31154182  0.59456377
   0.67954634  0.67132577  0.62053971
   0.32594692  0.67619276  0.62064693
   0.32143395  0.32605970  0.61940521
   0.67254493  0.32169464  0.62073909
   0.69300621  0.50184034  0.40405021
   0.30861139  0.49769002  0.40468233
   0.49956630  0.69244719  0.40313140
   0.49890828  0.30894177  0.40479110
   0.67183047  0.67802048  0.38029804
   0.32442191  0.67246220  0.37983274
   0.32563889  0.32436410  0.37985107
   0.67785997  0.32920259  0.38065727
   0.58610389  0.58488225  0.69453534
   0.41381385  0.58613954  0.69445460
   0.41288230  0.41312474  0.69389017
   0.58531412  0.41263495  0.69475998