unknown system                          
   1.00000000000000     
     4.050000    0.000000    0.000000
     0.000000    4.050000    0.000000
     0.000000    0.000000    4.050000
   Sr   Fe   O 
     1     1     3
Direct
  0.500000  0.500000  0.500000
  0.000000  0.000000  0.000000
  0.500000  0.000000  0.000000
  0.000000  0.500000  0.000000
  0.000000  0.000000  0.500000
 
   36   36   36
  1359.9      1295.5      1115.8      859.22      580.08      334.20      160.76      69.345      39.706      36.707    
  43.138      59.322      91.786      148.74      232.26      333.69      433.58      507.37      534.61      507.37    
  433.58      333.69      232.26      148.74      91.786      59.322      43.138      36.707      39.706      69.345    
  160.76      334.20      580.08      859.22      1115.8      1295.5      1295.5      1233.2      1059.9      813.17    
  546.20      312.69      149.60      64.969      38.264      35.582      41.793      57.245      87.925      141.86    
  221.32      318.21      413.93      484.79      510.98      484.79      413.93      318.21      221.32      141.86    
  87.925      57.245      41.793      35.582      38.264      64.969      149.60      312.69      546.20      813.17    
  1059.9      1233.2      1115.8      1059.9      904.97      686.76      454.28      255.27      120.49      53.894    
  34.517      32.471      38.065      51.598      77.504      123.17      191.29      275.34      359.15      421.58    
  444.72      421.58      359.15      275.34      191.29      123.17      77.504      51.598      38.065      32.471    
  34.517      53.894      120.49      255.27      454.28      686.76      904.97      1059.9      859.22      813.17    
  686.76      511.71      330.01      180.18      84.224      40.934      29.557      28.060      32.758      43.795    
  63.474      97.782      149.78      215.13      281.25      331.00      349.53      331.00      281.25      215.13    
  149.78      97.782      63.474      43.795      32.758      28.060      29.557      40.934      84.224      180.18    
  330.01      511.71      686.76      813.17      580.08      546.20      454.28      330.01      205.85      109.21    
  52.659      30.452      24.167      23.206      26.877      35.276      49.188      72.012      106.83      151.49    
  197.55      232.65      245.81      232.65      197.55      151.49      106.83      72.012      49.188      35.276    
  26.877      23.206      24.167      30.452      52.659      109.21      205.85      330.01      454.28      546.20    
  334.20      312.69      255.27      180.18      109.21      58.620      32.756      23.287      19.194      18.653    
  21.304      27.205      36.759      50.723      71.095      97.451      125.12      146.51      154.59      146.51    
  125.12      97.451      71.095      50.723      36.759      27.205      21.304      18.653      19.194      23.287    
  32.756      58.620      109.21      180.18      255.27      312.69      160.76      149.60      120.49      84.224    
  52.659      32.756      23.242      17.886      15.213      14.873      16.600      20.421      26.581      35.242    
  46.347      59.924      74.105      85.150      89.348      85.150      74.105      59.924      46.347      35.242    
  26.581      20.421      16.600      14.873      15.213      17.886      23.242      32.756      52.659      84.224    
  120.49      149.60      69.345      64.969      53.894      40.934      30.452      23.287      17.886      14.293    
  12.427      12.043      12.974      15.222      18.898      24.062      30.502      37.551      44.251      49.281    
  51.172      49.281      44.251      37.551      30.502      24.062      18.898      15.222      12.974      12.043    
  12.427      14.293      17.886      23.287      30.452      40.934      53.894      64.969      39.706      38.264    
  34.517      29.557      24.167      19.194      15.213      12.427      10.784      10.139      10.391      11.512    
  13.517      16.389      19.965      23.854      27.433      29.978      30.902      29.978      27.433      23.854    
  19.965      16.389      13.517      11.512      10.391      10.139      10.784      12.427      15.213      19.194    
  24.167      29.557      34.517      38.264      36.707      35.582      32.471      28.060      23.206      18.653    
  14.873      12.043      10.139      9.0600      8.7067      9.0140      9.9336      11.396      13.265      15.299    
  17.161      18.479      18.956      18.479      17.161      15.299      13.265      11.396      9.9336      9.0140    
  8.7067      9.0600      10.139      12.043      14.873      18.653      23.206      28.060      32.471      35.582    
  43.138      41.793      38.065      32.758      26.877      21.304      16.600      12.974      10.391      8.7067    
  7.7667      7.4446      7.6368      8.2402      9.1284      10.138      11.071      11.733      11.972      11.733    
  11.071      10.138      9.1284      8.2402      7.6368      7.4446      7.7667      8.7067      10.391      12.974    
  16.600      21.304      26.877      32.758      38.065      41.793      59.322      57.245      51.598      43.795    
  35.276      27.205      20.421      15.222      11.512      9.0140      7.4446      6.5748      6.2320      6.2784    
  6.5884      7.0320      7.4744      7.7953      7.9119      7.7953      7.4744      7.0320      6.5884      6.2784    
  6.2320      6.5748      7.4446      9.0140      11.512      15.222      20.421      27.205      35.276      43.795    
  51.598      57.245      91.786      87.925      77.504      63.474      49.188      36.759      26.581      18.898    
  13.517      9.9336      7.6368      6.2320      5.4431      5.0826      5.0143      5.1195      5.2851      5.4198    
  5.4701      5.4198      5.2851      5.1195      5.0143      5.0826      5.4431      6.2320      7.6368      9.9336    
  13.517      18.898      26.581      36.759      49.188      63.474      77.504      87.925      148.74      141.86    
  123.17      97.782      72.012      50.723      35.242      24.062      16.389      11.396      8.2402      6.2784    
  5.0826      4.3892      4.0393      3.9136      3.9020      3.9205      3.9295      3.9205      3.9020      3.9136    
  4.0393      4.3892      5.0826      6.2784      8.2402      11.396      16.389      24.062      35.242      50.723    
  72.012      97.782      123.17      141.86      232.26      221.32      191.29      149.78      106.83      71.095    
  46.347      30.502      19.965      13.265      9.1284      6.5884      5.0143      4.0393      3.4689      3.1756    
  3.0425      2.9827      2.9638      2.9827      3.0425      3.1756      3.4689      4.0393      5.0143      6.5884    
  9.1284      13.265      19.965      30.502      46.347      71.095      106.83      149.78      191.29      221.32    
  333.69      318.21      275.34      215.13      151.49      97.451      59.924      37.551      23.854      15.299    
  10.138      7.0320      5.1195      3.9136      3.1756      2.7645      2.5513      2.4406      2.4032      2.4406    
  2.5513      2.7645      3.1756      3.9136      5.1195      7.0320      10.138      15.299      23.854      37.551    
  59.924      97.451      151.49      215.13      275.34      318.21      433.58      413.93      359.15      281.25    
  197.55      125.12      74.105      44.251      27.433      17.161      11.071      7.4744      5.2851      3.9020    
  3.0425      2.5513      2.2866      2.1437      2.0945      2.1437      2.2866      2.5513      3.0425      3.9020    
  5.2851      7.4744      11.071      17.161      27.433      44.251      74.105      125.12      197.55      281.25    
  359.15      413.93      507.37      484.79      421.58      331.00      232.65      146.51      85.150      49.281    
  29.978      18.479      11.733      7.7953      5.4198      3.9205      2.9827      2.4406      2.1437      1.9807    
  1.9240      1.9807      2.1437      2.4406      2.9827      3.9205      5.4198      7.7953      11.733      18.479    
  29.978      49.281      85.150      146.51      232.65      331.00      421.58      484.79      534.61      510.98    
  444.72      349.53      245.81      154.59      89.348      51.172      30.902      18.956      11.972      7.9119    
  5.4701      3.9295      2.9638      2.4032      2.0945      1.9240      1.8646      1.9240      2.0945      2.4032    
  2.9638      3.9295      5.4701      7.9119      11.972      18.956      30.902      51.172      89.348      154.59    
  245.81      349.53      444.72      510.98      507.37      484.79      421.58      331.00      232.65      146.51    
  85.150      49.281      29.978      18.479      11.733      7.7953      5.4198      3.9205      2.9827      2.4406    
  2.1437      1.9807      1.9240      1.9807      2.1437      2.4406      2.9827      3.9205      5.4198      7.7953    
  11.733      18.479      29.978      49.281      85.150      146.51      232.65      331.00      421.58      484.79    
  433.58      413.93      359.15      281.25      197.55      125.12      74.105      44.251      27.433      17.161    
  11.071      7.4744      5.2851      3.9020      3.0425      2.5513      2.2866      2.1437      2.0945      2.1437    
  2.2866      2.5513      3.0425      3.9020      5.2851      7.4744      11.071      17.161      27.433      44.251    
  74.105      125.12      197.55      281.25      359.15      413.93      333.69      318.21      275.34      215.13    
  151.49      97.451      59.924      37.551      23.854      15.299      10.138      7.0320      5.1195      3.9136    
  3.1756      2.7645      2.5513      2.4406      2.4032      2.4406      2.5513      2.7645      3.1756      3.9136    
  5.1195      7.0320      10.138      15.299      23.854      37.551      59.924      97.451      151.49      215.13    
  275.34      318.21      232.26      221.32      191.29      149.78      106.83      71.095      46.347      30.502    
  19.965      13.265      9.1284      6.5884      5.0143      4.0393      3.4689      3.1756      3.0425      2.9827    
  2.9638      2.9827      3.0425      3.1756      3.4689      4.0393      5.0143      6.5884      9.1284      13.265    
  19.965      30.502      46.347      71.095      106.83      149.78      191.29      221.32      148.74      141.86    
  123.17      97.782      72.012      50.723      35.242      24.062      16.389      11.396      8.2402      6.2784    
  5.0826      4.3892      4.0393      3.9136      3.9020      3.9205      3.9295      3.9205      3.9020      3.9136    
  4.0393      4.3892      5.0826      6.2784      8.2402      11.396      16.389      24.062      35.242      50.723    
  72.012      97.782      123.17      141.86      91.786      87.925      77.504      63.474      49.188      36.759    
  26.581      18.898      13.517      9.9336      7.6368      6.2320      5.4431      5.0826      5.0143      5.1195    
  5.2851      5.4198      5.4701      5.4198      5.2851      5.1195      5.0143      5.0826      5.4431      6.2320    
  7.6368      9.9336      13.517      18.898      26.581      36.759      49.188      63.474      77.504      87.925    
  59.322      57.245      51.598      43.795      35.276      27.205      20.421      15.222      11.512      9.0140    
  7.4446      6.5748      6.2320      6.2784      6.5884      7.0320      7.4744      7.7953      7.9119      7.7953    
  7.4744      7.0320      6.5884      6.2784      6.2320      6.5748      7.4446      9.0140      11.512      15.222    
  20.421      27.205      35.276      43.795      51.598      57.245      43.138      41.793      38.065      32.758    
  26.877      21.304      16.600      12.974      10.391      8.7067      7.7667      7.4446      7.6368      8.2402    
  9.1284      10.138      11.071      11.733      11.972      11.733      11.071      10.138      9.1284      8.2402    
  7.6368      7.4446      7.7667      8.7067      10.391      12.974      16.600      21.304      26.877      32.758    
  38.065      41.793      36.707      35.582      32.471      28.060      23.206      18.653      14.873      12.043    
  10.139      9.0600      8.7067      9.0140      9.9336      11.396      13.265      15.299      17.161      18.479    
  18.956      18.479      17.161      15.299      13.265      11.396      9.9336      9.0140      8.7067      9.0600    
  10.139      12.043      14.873      18.653      23.206      28.060      32.471      35.582      39.706      38.264    
  34.517      29.557      24.167      19.194      15.213      12.427      10.784      10.139      10.391      11.512    
  13.517      16.389      19.965      23.854      27.433      29.978      30.902      29.978      27.433      23.854    
  19.965      16.389      13.517      11.512      10.391      10.139      10.784      12.427      15.213      19.194    
  24.167      29.557      34.517      38.264      69.345      64.969      53.894      40.934      30.452      23.287    
  17.886      14.293      12.427      12.043      12.974      15.222      18.898      24.062      30.502      37.551    
  44.251      49.281      51.172      49.281      44.251      37.551      30.502      24.062      18.898      15.222    
  12.974      12.043      12.427      14.293      17.886      23.287      30.452      40.934      53.894      64.969    
  160.76      149.60      120.49      84.224      52.659      32.756      23.242      17.886      15.213      14.873    
  16.600      20.421      26.581      35.242      46.347      59.924      74.105      85.150      89.348      85.150    
  74.105      59.924      46.347      35.242      26.581      20.421      16.600      14.873      15.213      17.886    
  23.242      32.756      52.659      84.224      120.49      149.60      334.20      312.69      255.27      180.18    
  109.21      58.620      32.756      23.287      19.194      18.653      21.304      27.205      36.759      50.723    
  71.095      97.451      125.12      146.51      154.59      146.51      125.12      97.451      71.095      50.723    
  36.759      27.205      21.304      18.653      19.194      23.287      32.756      58.620      109.21      180.18    
  255.27      312.69      580.08      546.20      454.28      330.01      205.85      109.21      52.659      30.452    
  24.167      23.206      26.877      35.276      49.188      72.012      106.83      151.49      197.55      232.65    
  245.81      232.65      197.55      151.49      106.83      72.012      49.188      35.276      26.877      23.206    
  24.167      30.452      52.659      109.21      205.85      330.01      454.28      546.20      859.22      813.17    
  686.76      511.71      330.01      180.18      84.224      40.934      29.557      28.060      32.758      43.795    
  63.474      97.782      149.78      215.13      281.25      331.00      349.53      331.00      281.25      215.13    
  149.78      97.782      63.474      43.795      32.758      28.060      29.557      40.934      84.224      180.18    
  330.01      511.71      686.76      813.17      1115.8      1059.9      904.97      686.76      454.28      255.27    
  120.49      53.894      34.517      32.471      38.065      51.598      77.504      123.17      191.29      275.34    
  359.15      421.58      444.72      421.58      359.15      275.34      191.29      123.17      77.504      51.598    
  38.065      32.471      34.517      53.894      120.49      255.27      454.28      686.76      904.97      1059.9    
  1295.5      1233.2      1059.9      813.17      546.20      312.69      149.60      64.969      38.264      35.582    
  41.793      57.245      87.925      141.86      221.32      318.21      413.93      484.79      510.98      484.79    
  413.93      318.21      221.32      141.86      87.925      57.245      41.793      35.582      38.264      64.969    
  149.60      312.69      546.20      813.17      1059.9      1233.2      1295.5      1233.2      1059.9      813.17    
  546.20      312.69      149.60      64.969      38.264      35.582      41.793      57.245      87.925      141.86    
  221.32      318.21      413.93      484.79      510.98      484.79      413.93      318.21      221.32      141.86    
  87.925      57.245      41.793      35.582      38.264      64.969      149.60      312.69      546.20      813.17    
  1059.9      1233.2      1233.2      1173.1      1006.0      769.05      513.94      292.39      139.19      60.949    
  36.926      34.502      40.501      55.270      84.265      135.32      210.85      303.33      394.98      462.97    
  488.12      462.97      394.98      303.33      210.85      135.32      84.265      55.270      40.501      34.502    
  36.926      60.949      139.19      292.39      513.94      769.05      1006.0      1173.1      1059.9      1006.0    
  857.12      648.11      426.55      238.26      112.08      50.798      33.417      31.513      36.918      49.893    
  74.391      117.56      182.17      262.21      342.26      402.01      424.19      402.01      342.26      262.21    
  182.17      117.56      74.391      49.893      36.918      31.513      33.417      50.798      112.08      238.26    
  426.55      648.11      857.12      1006.0      813.17      769.05      648.11      481.19      308.81      167.75    
  78.467      38.965      28.675      27.275      31.816      42.433      61.102      93.477      142.66      204.67    
  267.59      315.02      332.71      315.02      267.59      204.67      142.66      93.477      61.102      42.433    
  31.816      27.275      28.675      38.965      78.467      167.75      308.81      481.19      648.11      769.05    
  546.20      513.94      426.55      308.81      191.82      101.54      49.454      29.383      23.492      22.604    
  26.156      34.240      47.548      69.102      101.93      144.14      187.76      221.07      233.57      221.07    
  187.76      144.14      101.93      69.102      47.548      34.240      26.156      22.604      23.492      29.383    
  49.454      101.54      191.82      308.81      426.55      513.94      312.69      292.39      238.26      167.75    
  101.54      54.854      31.347      22.612      18.708      18.216      20.784      26.469      35.658      48.965    
  68.176      92.994      119.07      139.26      146.90      139.26      119.07      92.994      68.176      48.965    
  35.658      26.469      20.784      18.216      18.708      22.612      31.347      54.854      101.54      167.75    
  238.26      292.39      149.60      139.19      112.08      78.467      49.454      31.347      22.555      17.423    
  14.874      14.565      16.239      19.925      25.857      34.189      44.788      57.606      70.949      81.336    
  85.284      81.336      70.949      57.606      44.788      34.189      25.857      19.925      16.239      14.565    
  14.874      17.423      22.555      31.347      49.454      78.467      112.08      139.19      64.969      60.949    
  50.798      38.965      29.383      22.612      17.423      13.975      12.187      11.823      12.727      14.900    
  18.447      23.423      29.621      36.398      42.781      47.543      49.328      47.543      42.781      36.398    
  29.621      23.423      18.447      14.900      12.727      11.823      12.187      13.975      17.423      22.612    
  29.383      38.965      50.798      60.949      38.264      36.926      33.417      28.675      23.492      18.708    
  14.874      12.187      10.598      9.9735      10.217      11.302      13.243      16.018      19.469      23.218    
  26.665      29.115      30.005      29.115      26.665      23.218      19.469      16.018      13.243      11.302    
  10.217      9.9735      10.598      12.187      14.874      18.708      23.492      28.675      33.417      36.926    
  35.582      34.502      31.513      27.275      22.604      18.216      14.565      11.823      9.9735      8.9216    
  8.5755      8.8726      9.7651      11.184      12.994      14.963      16.764      18.037      18.498      18.037    
  16.764      14.963      12.994      11.184      9.7651      8.8726      8.5755      8.9216      9.9735      11.823    
  14.565      18.216      22.604      27.275      31.513      34.502      41.793      40.501      36.918      31.816    
  26.156      20.784      16.239      12.727      10.217      8.5755      7.6573      7.3417      7.5285      8.1164    
  8.9813      9.9629      10.871      11.513      11.745      11.513      10.871      9.9629      8.9813      8.1164    
  7.5285      7.3417      7.6573      8.5755      10.217      12.727      16.239      20.784      26.156      31.816    
  36.918      40.501      57.245      55.270      49.893      42.433      34.240      26.469      19.925      14.900    
  11.302      8.8726      7.3417      6.4918      6.1567      6.2029      6.5069      6.9411      7.3738      7.6875    
  7.8015      7.6875      7.3738      6.9411      6.5069      6.2029      6.1567      6.4918      7.3417      8.8726    
  11.302      14.900      19.925      26.469      34.240      42.433      49.893      55.270      87.925      84.265    
  74.391      61.102      47.548      35.658      25.857      18.447      13.243      9.7651      7.5285      6.1567    
  5.3857      5.0341      4.9691      5.0738      5.2374      5.3702      5.4198      5.3702      5.2374      5.0738    
  4.9691      5.0341      5.3857      6.1567      7.5285      9.7651      13.243      18.447      25.857      35.658    
  47.548      61.102      74.391      84.265      141.86      135.32      117.56      93.477      69.102      48.965    
  34.189      23.423      16.018      11.184      8.1164      6.2029      5.0341      4.3568      4.0162      3.8952    
  3.8856      3.9050      3.9144      3.9050      3.8856      3.8952      4.0162      4.3568      5.0341      6.2029    
  8.1164      11.184      16.018      23.423      34.189      48.965      69.102      93.477      117.56      135.32    
  221.32      210.85      182.17      142.66      101.93      68.176      44.788      29.621      19.469      12.994    
  8.9813      6.5069      4.9691      4.0162      3.4597      3.1745      3.0459      2.9888      2.9709      2.9888    
  3.0459      3.1745      3.4597      4.0162      4.9691      6.5069      8.9813      12.994      19.469      29.621    
  44.788      68.176      101.93      142.66      182.17      210.85      318.21      303.33      262.21      204.67    
  144.14      92.994      57.606      36.398      23.218      14.963      9.9629      6.9411      5.0738      3.8952    
  3.1745      2.7737      2.5665      2.4596      2.4237      2.4596      2.5665      2.7737      3.1745      3.8952    
  5.0738      6.9411      9.9629      14.963      23.218      36.398      57.606      92.994      144.14      204.67    
  262.21      303.33      413.93      394.98      342.26      267.59      187.76      119.07      70.949      42.781    
  26.665      16.764      10.871      7.3738      5.2374      3.8856      3.0459      2.5665      2.3088      2.1704    
  2.1229      2.1704      2.3088      2.5665      3.0459      3.8856      5.2374      7.3738      10.871      16.764    
  26.665      42.781      70.949      119.07      187.76      267.59      342.26      394.98      484.79      462.97    
  402.01      315.02      221.07      139.26      81.336      47.543      29.115      18.037      11.513      7.6875    
  5.3702      3.9050      2.9888      2.4596      2.1704      2.0123      1.9575      2.0123      2.1704      2.4596    
  2.9888      3.9050      5.3702      7.6875      11.513      18.037      29.115      47.543      81.336      139.26    
  221.07      315.02      402.01      462.97      510.98      488.12      424.19      332.71      233.57      146.90    
  85.284      49.328      30.005      18.498      11.745      7.8015      5.4198      3.9144      2.9709      2.4237    
  2.1229      1.9575      1.9000      1.9575      2.1229      2.4237      2.9709      3.9144      5.4198      7.8015    
  11.745      18.498      30.005      49.328      85.284      146.90      233.57      332.71      424.19      488.12    
  484.79      462.97      402.01      315.02      221.07      139.26      81.336      47.543      29.115      18.037    
  11.513      7.6875      5.3702      3.9050      2.9888      2.4596      2.1704      2.0123      1.9575      2.0123    
  2.1704      2.4596      2.9888      3.9050      5.3702      7.6875      11.513      18.037      29.115      47.543    
  81.336      139.26      221.07      315.02      402.01      462.97      413.93      394.98      342.26      267.59    
  187.76      119.07      70.949      42.781      26.665      16.764      10.871      7.3738      5.2374      3.8856    
  3.0459      2.5665      2.3088      2.1704      2.1229      2.1704      2.3088      2.5665      3.0459      3.8856    
  5.2374      7.3738      10.871      16.764      26.665      42.781      70.949      119.07      187.76      267.59    
  342.26      394.98      318.21      303.33      262.21      204.67      144.14      92.994      57.606      36.398    
  23.218      14.963      9.9629      6.9411      5.0738      3.8952      3.1745      2.7737      2.5665      2.4596    
  2.4237      2.4596      2.5665      2.7737      3.1745      3.8952      5.0738      6.9411      9.9629      14.963    
  23.218      36.398      57.606      92.994      144.14      204.67      262.21      303.33      221.32      210.85    
  182.17      142.66      101.93      68.176      44.788      29.621      19.469      12.994      8.9813      6.5069    
  4.9691      4.0162      3.4597      3.1745      3.0459      2.9888      2.9709      2.9888      3.0459      3.1745    
  3.4597      4.0162      4.9691      6.5069      8.9813      12.994      19.469      29.621      44.788      68.176    
  101.93      142.66      182.17      210.85      141.86      135.32      117.56      93.477      69.102      48.965    
  34.189      23.423      16.018      11.184      8.1164      6.2029      5.0341      4.3568      4.0162      3.8952    
  3.8856      3.9050      3.9144      3.9050      3.8856      3.8952      4.0162      4.3568      5.0341      6.2029    
  8.1164      11.184      16.018      23.423      34.189      48.965      69.102      93.477      117.56      135.32    
  87.925      84.265      74.391      61.102      47.548      35.658      25.857      18.447      13.243      9.7651    
  7.5285      6.1567      5.3857      5.0341      4.9691      5.0738      5.2374      5.3702      5.4198      5.3702    
  5.2374      5.0738      4.9691      5.0341      5.3857      6.1567      7.5285      9.7651      13.243      18.447    
  25.857      35.658      47.548      61.102      74.391      84.265      57.245      55.270      49.893      42.433    
  34.240      26.469      19.925      14.900      11.302      8.8726      7.3417      6.4918      6.1567      6.2029    
  6.5069      6.9411      7.3738      7.6875      7.8015      7.6875      7.3738      6.9411      6.5069      6.2029    
  6.1567      6.4918      7.3417      8.8726      11.302      14.900      19.925      26.469      34.240      42.433    
  49.893      55.270      41.793      40.501      36.918      31.816      26.156      20.784      16.239      12.727    
  10.217      8.5755      7.6573      7.3417      7.5285      8.1164      8.9813      9.9629      10.871      11.513    
  11.745      11.513      10.871      9.9629      8.9813      8.1164      7.5285      7.3417      7.6573      8.5755    
  10.217      12.727      16.239      20.784      26.156      31.816      36.918      40.501      35.582      34.502    
  31.513      27.275      22.604      18.216      14.565      11.823      9.9735      8.9216      8.5755      8.8726    
  9.7651      11.184      12.994      14.963      16.764      18.037      18.498      18.037      16.764      14.963    
  12.994      11.184      9.7651      8.8726      8.5755      8.9216      9.9735      11.823      14.565      18.216    
  22.604      27.275      31.513      34.502      38.264      36.926      33.417      28.675      23.492      18.708    
  14.874      12.187      10.598      9.9735      10.217      11.302      13.243      16.018      19.469      23.218    
  26.665      29.115      30.005      29.115      26.665      23.218      19.469      16.018      13.243      11.302    
  10.217      9.9735      10.598      12.187      14.874      18.708      23.492      28.675      33.417      36.926    
  64.969      60.949      50.798      38.965      29.383      22.612      17.423      13.975      12.187      11.823    
  12.727      14.900      18.447      23.423      29.621      36.398      42.781      47.543      49.328      47.543    
  42.781      36.398      29.621      23.423      18.447      14.900      12.727      11.823      12.187      13.975    
  17.423      22.612      29.383      38.965      50.798      60.949      149.60      139.19      112.08      78.467    
  49.454      31.347      22.555      17.423      14.874      14.565      16.239      19.925      25.857      34.189    
  44.788      57.606      70.949      81.336      85.284      81.336      70.949      57.606      44.788      34.189    
  25.857      19.925      16.239      14.565      14.874      17.423      22.555      31.347      49.454      78.467    
  112.08      139.19      312.69      292.39      238.26      167.75      101.54      54.854      31.347      22.612    
  18.708      18.216      20.784      26.469      35.658      48.965      68.176      92.994      119.07      139.26    
  146.90      139.26      119.07      92.994      68.176      48.965      35.658      26.469      20.784      18.216    