unknown system                          
   1.00000000000000     
     4.050000    0.000000    0.000000
     0.000000    4.050000    0.000000
     0.000000    0.000000    4.050000
   Sr   Fe   O 
     1     1     3
Direct
  0.500000  0.500000  0.500000
  0.000000  0.000000  0.000000
  0.500000  0.000000  0.000000
  0.000000  0.500000  0.000000
  0.000000  0.000000  0.500000
 
   36   36   36
 0.13598917011E+04 0.12954797545E+04 0.11158404670E+04 0.85922412919E+03 0.58008429769E+03
 0.33419818935E+03 0.16075821747E+03 0.69345249123E+02 0.39706406753E+02 0.36707162032E+02
 0.43138408721E+02 0.59322235886E+02 0.91785775662E+02 0.14873772886E+03 0.23226078266E+03
 0.33369021654E+03 0.43358086144E+03 0.50737010127E+03 0.53461172193E+03 0.50737010127E+03
 0.43358086144E+03 0.33369021654E+03 0.23226078266E+03 0.14873772886E+03 0.91785775662E+02
 0.59322235886E+02 0.43138408721E+02 0.36707162032E+02 0.39706406753E+02 0.69345249123E+02
 0.16075821747E+03 0.33419818935E+03 0.58008429769E+03 0.85922412919E+03 0.11158404670E+04
 0.12954797545E+04 0.12954797545E+04 0.12332154254E+04 0.10598876945E+04 0.81317414149E+03
 0.54620429121E+03 0.31269452814E+03 0.14960492318E+03 0.64969192044E+02 0.38264345711E+02
 0.35582036192E+02 0.41793019640E+02 0.57244831637E+02 0.87925466170E+02 0.14186357665E+03
 0.22132060200E+03 0.31820819608E+03 0.41392879413E+03 0.48478877302E+03 0.51097705996E+03
 0.48478877302E+03 0.41392879413E+03 0.31820819608E+03 0.22132060200E+03 0.14186357665E+03
 0.87925466170E+02 0.57244831637E+02 0.41793019640E+02 0.35582036192E+02 0.38264345711E+02
 0.64969192044E+02 0.14960492318E+03 0.31269452814E+03 0.54620429121E+03 0.81317414149E+03
 0.10598876945E+04 0.12332154254E+04 0.11158404670E+04 0.10598876945E+04 0.90496607577E+03
 0.68675836626E+03 0.45428143175E+03 0.25526828862E+03 0.12048649874E+03 0.53894494512E+02
 0.34517153710E+02 0.32470645549E+02 0.38064910234E+02 0.51597648288E+02 0.77504021573E+02
 0.12317397490E+03 0.19128866358E+03 0.27533904923E+03 0.35914921840E+03 0.42157934394E+03
 0.44472419366E+03 0.42157934394E+03 0.35914921840E+03 0.27533904923E+03 0.19128866358E+03
 0.12317397490E+03 0.77504021573E+02 0.51597648288E+02 0.38064910234E+02 0.32470645549E+02
 0.34517153710E+02 0.53894494512E+02 0.12048649874E+03 0.25526828862E+03 0.45428143175E+03
 0.68675836626E+03 0.90496607577E+03 0.10598876945E+04 0.85922412919E+03 0.81317414149E+03
 0.68675836626E+03 0.51171244385E+03 0.33001343808E+03 0.18018340845E+03 0.84223539639E+02
 0.40933882871E+02 0.29556694790E+02 0.28060411528E+02 0.32758196112E+02 0.43794949428E+02
 0.63473612573E+02 0.97781631103E+02 0.14977904690E+03 0.21512702856E+03 0.28125169544E+03
 0.33099732957E+03 0.34953097830E+03 0.33099732957E+03 0.28125169544E+03 0.21512702856E+03
 0.14977904690E+03 0.97781631103E+02 0.63473612573E+02 0.43794949428E+02 0.32758196112E+02
 0.28060411528E+02 0.29556694790E+02 0.40933882871E+02 0.84223539639E+02 0.18018340845E+03
 0.33001343808E+03 0.51171244385E+03 0.68675836626E+03 0.81317414149E+03 0.58008429769E+03
 0.54620429121E+03 0.45428143175E+03 0.33001343808E+03 0.20585253483E+03 0.10921296823E+03
 0.52658875079E+02 0.30452107115E+02 0.24167007510E+02 0.23205758988E+02 0.26876948746E+02
 0.35276120377E+02 0.49187572402E+02 0.72011766380E+02 0.10682609893E+03 0.15149461741E+03
 0.19754972110E+03 0.23265054724E+03 0.24581380907E+03 0.23265054724E+03 0.19754972110E+03
 0.15149461741E+03 0.10682609893E+03 0.72011766380E+02 0.49187572402E+02 0.35276120377E+02
 0.26876948746E+02 0.23205758988E+02 0.24167007510E+02 0.30452107115E+02 0.52658875079E+02
 0.10921296823E+03 0.20585253483E+03 0.33001343808E+03 0.45428143175E+03 0.54620429121E+03
 0.33419818935E+03 0.31269452814E+03 0.25526828862E+03 0.18018340845E+03 0.10921296823E+03
 0.58620082272E+02 0.32756105631E+02 0.23287242545E+02 0.19194182411E+02 0.18653320215E+02
 0.21304145184E+02 0.27205368995E+02 0.36759343666E+02 0.50723316128E+02 0.71095314747E+02
 0.97450728545E+02 0.12511525426E+03 0.14650696962E+03 0.15459049834E+03 0.14650696962E+03
 0.12511525426E+03 0.97450728545E+02 0.71095314747E+02 0.50723316128E+02 0.36759343666E+02
 0.27205368995E+02 0.21304145184E+02 0.18653320215E+02 0.19194182411E+02 0.23287242545E+02
 0.32756105631E+02 0.58620082272E+02 0.10921296823E+03 0.18018340845E+03 0.25526828862E+03
 0.31269452814E+03 0.16075821747E+03 0.14960492318E+03 0.12048649874E+03 0.84223539639E+02
 0.52658875079E+02 0.32756105631E+02 0.23241975003E+02 0.17885800723E+02 0.15212785730E+02
 0.14873345747E+02 0.16599728392E+02 0.20420596256E+02 0.26580910517E+02 0.35242422109E+02
 0.46347221594E+02 0.59924130158E+02 0.74104605578E+02 0.85150431775E+02 0.89348402015E+02
 0.85150431775E+02 0.74104605578E+02 0.59924130158E+02 0.46347221594E+02 0.35242422109E+02
 0.26580910517E+02 0.20420596256E+02 0.16599728392E+02 0.14873345747E+02 0.15212785730E+02
 0.17885800723E+02 0.23241975003E+02 0.32756105631E+02 0.52658875079E+02 0.84223539639E+02
 0.12048649874E+03 0.14960492318E+03 0.69345249123E+02 0.64969192044E+02 0.53894494512E+02
 0.40933882871E+02 0.30452107115E+02 0.23287242545E+02 0.17885800723E+02 0.14292972972E+02
 0.12427394500E+02 0.12042982094E+02 0.12974054755E+02 0.15222278660E+02 0.18898430951E+02
 0.24062275430E+02 0.30501590601E+02 0.37550882845E+02 0.44251256298E+02 0.49281199797E+02
 0.51171906685E+02 0.49281199797E+02 0.44251256298E+02 0.37550882845E+02 0.30501590601E+02
 0.24062275430E+02 0.18898430951E+02 0.15222278660E+02 0.12974054755E+02 0.12042982094E+02
 0.12427394500E+02 0.14292972972E+02 0.17885800723E+02 0.23287242545E+02 0.30452107115E+02
 0.40933882871E+02 0.53894494512E+02 0.64969192044E+02 0.39706406753E+02 0.38264345711E+02
 0.34517153710E+02 0.29556694790E+02 0.24167007510E+02 0.19194182411E+02 0.15212785730E+02
 0.12427394500E+02 0.10783520340E+02 0.10139334616E+02 0.10391130913E+02 0.11511671276E+02
 0.13517361249E+02 0.16388744834E+02 0.19964759760E+02 0.23853929509E+02 0.27432616245E+02
 0.29977769571E+02 0.30901756137E+02 0.29977769571E+02 0.27432616245E+02 0.23853929509E+02
 0.19964759760E+02 0.16388744834E+02 0.13517361249E+02 0.11511671276E+02 0.10391130913E+02
 0.10139334616E+02 0.10783520340E+02 0.12427394500E+02 0.15212785730E+02 0.19194182411E+02
 0.24167007510E+02 0.29556694790E+02 0.34517153710E+02 0.38264345711E+02 0.36707162032E+02
 0.35582036192E+02 0.32470645549E+02 0.28060411528E+02 0.23205758988E+02 0.18653320215E+02
 0.14873345747E+02 0.12042982094E+02 0.10139334616E+02 0.90599523179E+01 0.87067251390E+01
 0.90139960985E+01 0.99336416641E+01 0.11396343668E+02 0.13264866881E+02 0.15299234264E+02
 0.17161433386E+02 0.18479222977E+02 0.18956332731E+02 0.18479222977E+02 0.17161433386E+02
 0.15299234264E+02 0.13264866881E+02 0.11396343668E+02 0.99336416641E+01 0.90139960985E+01
 0.87067251390E+01 0.90599523179E+01 0.10139334616E+02 0.12042982094E+02 0.14873345747E+02
 0.18653320215E+02 0.23205758988E+02 0.28060411528E+02 0.32470645549E+02 0.35582036192E+02
 0.43138408721E+02 0.41793019640E+02 0.38064910234E+02 0.32758196112E+02 0.26876948746E+02
 0.21304145184E+02 0.16599728392E+02 0.12974054755E+02 0.10391130913E+02 0.87067251390E+01
 0.77667035545E+01 0.74446296990E+01 0.76368344703E+01 0.82401726972E+01 0.91283815141E+01
 0.10137540053E+02 0.11071396000E+02 0.11732545695E+02 0.11971581577E+02 0.11732545695E+02
 0.11071396000E+02 0.10137540053E+02 0.91283815141E+01 0.82401726972E+01 0.76368344703E+01
 0.74446296990E+01 0.77667035545E+01 0.87067251390E+01 0.10391130913E+02 0.12974054755E+02
 0.16599728392E+02 0.21304145184E+02 0.26876948746E+02 0.32758196112E+02 0.38064910234E+02
 0.41793019640E+02 0.59322235886E+02 0.57244831637E+02 0.51597648288E+02 0.43794949428E+02
 0.35276120377E+02 0.27205368995E+02 0.20420596256E+02 0.15222278660E+02 0.11511671276E+02
 0.90139960985E+01 0.74446296990E+01 0.65748478552E+01 0.62319986207E+01 0.62784131430E+01
 0.65884493023E+01 0.70319747409E+01 0.74744314936E+01 0.77952835441E+01 0.79119268960E+01
 0.77952835441E+01 0.74744314936E+01 0.70319747409E+01 0.65884493023E+01 0.62784131430E+01
 0.62319986207E+01 0.65748478552E+01 0.74446296990E+01 0.90139960985E+01 0.11511671276E+02
 0.15222278660E+02 0.20420596256E+02 0.27205368995E+02 0.35276120377E+02 0.43794949428E+02
 0.51597648288E+02 0.57244831637E+02 0.91785775662E+02 0.87925466170E+02 0.77504021573E+02
 0.63473612573E+02 0.49187572402E+02 0.36759343666E+02 0.26580910517E+02 0.18898430951E+02
 0.13517361249E+02 0.99336416641E+01 0.76368344703E+01 0.62319986207E+01 0.54431391594E+01
 0.50825794490E+01 0.50142697330E+01 0.51194554125E+01 0.52851455760E+01 0.54198088902E+01
 0.54700769961E+01 0.54198088902E+01 0.52851455760E+01 0.51194554125E+01 0.50142697330E+01
 0.50825794490E+01 0.54431391594E+01 0.62319986207E+01 0.76368344703E+01 0.99336416641E+01
 0.13517361249E+02 0.18898430951E+02 0.26580910517E+02 0.36759343666E+02 0.49187572402E+02
 0.63473612573E+02 0.77504021573E+02 0.87925466170E+02 0.14873772886E+03 0.14186357665E+03
 0.12317397490E+03 0.97781631103E+02 0.72011766380E+02 0.50723316128E+02 0.35242422109E+02
 0.24062275430E+02 0.16388744834E+02 0.11396343668E+02 0.82401726972E+01 0.62784131430E+01
 0.50825794490E+01 0.43892006219E+01 0.40392983306E+01 0.39136221019E+01 0.39020377856E+01
 0.39205423347E+01 0.39295344032E+01 0.39205423347E+01 0.39020377856E+01 0.39136221019E+01
 0.40392983306E+01 0.43892006219E+01 0.50825794490E+01 0.62784131430E+01 0.82401726972E+01
 0.11396343668E+02 0.16388744834E+02 0.24062275430E+02 0.35242422109E+02 0.50723316128E+02
 0.72011766380E+02 0.97781631103E+02 0.12317397490E+03 0.14186357665E+03 0.23226078266E+03
 0.22132060200E+03 0.19128866358E+03 0.14977904690E+03 0.10682609893E+03 0.71095314747E+02
 0.46347221594E+02 0.30501590601E+02 0.19964759760E+02 0.13264866881E+02 0.91283815141E+01
 0.65884493023E+01 0.50142697330E+01 0.40392983306E+01 0.34689237437E+01 0.31756361131E+01
 0.30425270192E+01 0.29827486336E+01 0.29637571981E+01 0.29827486336E+01 0.30425270192E+01
 0.31756361131E+01 0.34689237437E+01 0.40392983306E+01 0.50142697330E+01 0.65884493023E+01
 0.91283815141E+01 0.13264866881E+02 0.19964759760E+02 0.30501590601E+02 0.46347221594E+02
 0.71095314747E+02 0.10682609893E+03 0.14977904690E+03 0.19128866358E+03 0.22132060200E+03
 0.33369021654E+03 0.31820819608E+03 0.27533904923E+03 0.21512702856E+03 0.15149461741E+03
 0.97450728545E+02 0.59924130158E+02 0.37550882845E+02 0.23853929509E+02 0.15299234264E+02
 0.10137540053E+02 0.70319747409E+01 0.51194554125E+01 0.39136221019E+01 0.31756361131E+01
 0.27645188938E+01 0.25512681399E+01 0.24406301745E+01 0.24032254850E+01 0.24406301745E+01
 0.25512681399E+01 0.27645188938E+01 0.31756361131E+01 0.39136221019E+01 0.51194554125E+01
 0.70319747409E+01 0.10137540053E+02 0.15299234264E+02 0.23853929509E+02 0.37550882845E+02
 0.59924130158E+02 0.97450728545E+02 0.15149461741E+03 0.21512702856E+03 0.27533904923E+03
 0.31820819608E+03 0.43358086144E+03 0.41392879413E+03 0.35914921840E+03 0.28125169544E+03
 0.19754972110E+03 0.12511525426E+03 0.74104605578E+02 0.44251256298E+02 0.27432616245E+02
 0.17161433386E+02 0.11071396000E+02 0.74744314936E+01 0.52851455760E+01 0.39020377856E+01
 0.30425270192E+01 0.25512681399E+01 0.22865916732E+01 0.21437462647E+01 0.20945160819E+01
 0.21437462647E+01 0.22865916732E+01 0.25512681399E+01 0.30425270192E+01 0.39020377856E+01
 0.52851455760E+01 0.74744314936E+01 0.11071396000E+02 0.17161433386E+02 0.27432616245E+02
 0.44251256298E+02 0.74104605578E+02 0.12511525426E+03 0.19754972110E+03 0.28125169544E+03
 0.35914921840E+03 0.41392879413E+03 0.50737010127E+03 0.48478877302E+03 0.42157934394E+03
 0.33099732957E+03 0.23265054724E+03 0.14650696962E+03 0.85150431775E+02 0.49281199797E+02
 0.29977769571E+02 0.18479222977E+02 0.11732545695E+02 0.77952835441E+01 0.54198088902E+01
 0.39205423347E+01 0.29827486336E+01 0.24406301745E+01 0.21437462647E+01 0.19807326241E+01
 0.19240481466E+01 0.19807326241E+01 0.21437462647E+01 0.24406301745E+01 0.29827486336E+01
 0.39205423347E+01 0.54198088902E+01 0.77952835441E+01 0.11732545695E+02 0.18479222977E+02
 0.29977769571E+02 0.49281199797E+02 0.85150431775E+02 0.14650696962E+03 0.23265054724E+03
 0.33099732957E+03 0.42157934394E+03 0.48478877302E+03 0.53461172193E+03 0.51097705996E+03
 0.44472419366E+03 0.34953097830E+03 0.24581380907E+03 0.15459049834E+03 0.89348402015E+02
 0.51171906685E+02 0.30901756137E+02 0.18956332731E+02 0.11971581577E+02 0.79119268960E+01
 0.54700769961E+01 0.39295344032E+01 0.29637571981E+01 0.24032254850E+01 0.20945160819E+01
 0.19240481466E+01 0.18646083838E+01 0.19240481466E+01 0.20945160819E+01 0.24032254850E+01
 0.29637571981E+01 0.39295344032E+01 0.54700769961E+01 0.79119268960E+01 0.11971581577E+02
 0.18956332731E+02 0.30901756137E+02 0.51171906685E+02 0.89348402015E+02 0.15459049834E+03
 0.24581380907E+03 0.34953097830E+03 0.44472419366E+03 0.51097705996E+03 0.50737010127E+03
 0.48478877302E+03 0.42157934394E+03 0.33099732957E+03 0.23265054724E+03 0.14650696962E+03
 0.85150431775E+02 0.49281199797E+02 0.29977769571E+02 0.18479222977E+02 0.11732545695E+02
 0.77952835441E+01 0.54198088902E+01 0.39205423347E+01 0.29827486336E+01 0.24406301745E+01
 0.21437462647E+01 0.19807326241E+01 0.19240481466E+01 0.19807326241E+01 0.21437462647E+01
 0.24406301745E+01 0.29827486336E+01 0.39205423347E+01 0.54198088902E+01 0.77952835441E+01
 0.11732545695E+02 0.18479222977E+02 0.29977769571E+02 0.49281199797E+02 0.85150431775E+02
 0.14650696962E+03 0.23265054724E+03 0.33099732957E+03 0.42157934394E+03 0.48478877302E+03
 0.43358086144E+03 0.41392879413E+03 0.35914921840E+03 0.28125169544E+03 0.19754972110E+03
 0.12511525426E+03 0.74104605578E+02 0.44251256298E+02 0.27432616245E+02 0.17161433386E+02
 0.11071396000E+02 0.74744314936E+01 0.52851455760E+01 0.39020377856E+01 0.30425270192E+01
 0.25512681399E+01 0.22865916732E+01 0.21437462647E+01 0.20945160819E+01 0.21437462647E+01
 0.22865916732E+01 0.25512681399E+01 0.30425270192E+01 0.39020377856E+01 0.52851455760E+01
 0.74744314936E+01 0.11071396000E+02 0.17161433386E+02 0.27432616245E+02 0.44251256298E+02
 0.74104605578E+02 0.12511525426E+03 0.19754972110E+03 0.28125169544E+03 0.35914921840E+03
 0.41392879413E+03 0.33369021654E+03 0.31820819608E+03 0.27533904923E+03 0.21512702856E+03
 0.15149461741E+03 0.97450728545E+02 0.59924130158E+02 0.37550882845E+02 0.23853929509E+02
 0.15299234264E+02 0.10137540053E+02 0.70319747409E+01 0.51194554125E+01 0.39136221019E+01
 0.31756361131E+01 0.27645188938E+01 0.25512681399E+01 0.24406301745E+01 0.24032254850E+01
 0.24406301745E+01 0.25512681399E+01 0.27645188938E+01 0.31756361131E+01 0.39136221019E+01
 0.51194554125E+01 0.70319747409E+01 0.10137540053E+02 0.15299234264E+02 0.23853929509E+02
 0.37550882845E+02 0.59924130158E+02 0.97450728545E+02 0.15149461741E+03 0.21512702856E+03
 0.27533904923E+03 0.31820819608E+03 0.23226078266E+03 0.22132060200E+03 0.19128866358E+03
 0.14977904690E+03 0.10682609893E+03 0.71095314747E+02 0.46347221594E+02 0.30501590601E+02
 0.19964759760E+02 0.13264866881E+02 0.91283815141E+01 0.65884493023E+01 0.50142697330E+01
 0.40392983306E+01 0.34689237437E+01 0.31756361131E+01 0.30425270192E+01 0.29827486336E+01
 0.29637571981E+01 0.29827486336E+01 0.30425270192E+01 0.31756361131E+01 0.34689237437E+01
 0.40392983306E+01 0.50142697330E+01 0.65884493023E+01 0.91283815141E+01 0.13264866881E+02
 0.19964759760E+02 0.30501590601E+02 0.46347221594E+02 0.71095314747E+02 0.10682609893E+03
 0.14977904690E+03 0.19128866358E+03 0.22132060200E+03 0.14873772886E+03 0.14186357665E+03
 0.12317397490E+03 0.97781631103E+02 0.72011766380E+02 0.50723316128E+02 0.35242422109E+02
 0.24062275430E+02 0.16388744834E+02 0.11396343668E+02 0.82401726972E+01 0.62784131430E+01
 0.50825794490E+01 0.43892006219E+01 0.40392983306E+01 0.39136221019E+01 0.39020377856E+01
 0.39205423347E+01 0.39295344032E+01 0.39205423347E+01 0.39020377856E+01 0.39136221019E+01
 0.40392983306E+01 0.43892006219E+01 0.50825794490E+01 0.62784131430E+01 0.82401726972E+01
 0.11396343668E+02 0.16388744834E+02 0.24062275430E+02 0.35242422109E+02 0.50723316128E+02
 0.72011766380E+02 0.97781631103E+02 0.12317397490E+03 0.14186357665E+03 0.91785775662E+02
 0.87925466170E+02 0.77504021573E+02 0.63473612573E+02 0.49187572402E+02 0.36759343666E+02
 0.26580910517E+02 0.18898430951E+02 0.13517361249E+02 0.99336416641E+01 0.76368344703E+01
 0.62319986207E+01 0.54431391594E+01 0.50825794490E+01 0.50142697330E+01 0.51194554125E+01
 0.52851455760E+01 0.54198088902E+01 0.54700769961E+01 0.54198088902E+01 0.52851455760E+01
 0.51194554125E+01 0.50142697330E+01 0.50825794490E+01 0.54431391594E+01 0.62319986207E+01
 0.76368344703E+01 0.99336416641E+01 0.13517361249E+02 0.18898430951E+02 0.26580910517E+02
 0.36759343666E+02 0.49187572402E+02 0.63473612573E+02 0.77504021573E+02 0.87925466170E+02
 0.59322235886E+02 0.57244831637E+02 0.51597648288E+02 0.43794949428E+02 0.35276120377E+02
 0.27205368995E+02 0.20420596256E+02 0.15222278660E+02 0.11511671276E+02 0.90139960985E+01
 0.74446296990E+01 0.65748478552E+01 0.62319986207E+01 0.62784131430E+01 0.65884493023E+01
 0.70319747409E+01 0.74744314936E+01 0.77952835441E+01 0.79119268960E+01 0.77952835441E+01
 0.74744314936E+01 0.70319747409E+01 0.65884493023E+01 0.62784131430E+01 0.62319986207E+01
 0.65748478552E+01 0.74446296990E+01 0.90139960985E+01 0.11511671276E+02 0.15222278660E+02
 0.20420596256E+02 0.27205368995E+02 0.35276120377E+02 0.43794949428E+02 0.51597648288E+02
 0.57244831637E+02 0.43138408721E+02 0.41793019640E+02 0.38064910234E+02 0.32758196112E+02
 0.26876948746E+02 0.21304145184E+02 0.16599728392E+02 0.12974054755E+02 0.10391130913E+02
 0.87067251390E+01 0.77667035545E+01 0.74446296990E+01 0.76368344703E+01 0.82401726972E+01
 0.91283815141E+01 0.10137540053E+02 0.11071396000E+02 0.11732545695E+02 0.11971581577E+02
 0.11732545695E+02 0.11071396000E+02 0.10137540053E+02 0.91283815141E+01 0.82401726972E+01
 0.76368344703E+01 0.74446296990E+01 0.77667035545E+01 0.87067251390E+01 0.10391130913E+02
 0.12974054755E+02 0.16599728392E+02 0.21304145184E+02 0.26876948746E+02 0.32758196112E+02
 0.38064910234E+02 0.41793019640E+02 0.36707162032E+02 0.35582036192E+02 0.32470645549E+02
 0.28060411528E+02 0.23205758988E+02 0.18653320215E+02 0.14873345747E+02 0.12042982094E+02
 0.10139334616E+02 0.90599523179E+01 0.87067251390E+01 0.90139960985E+01 0.99336416641E+01
 0.11396343668E+02 0.13264866881E+02 0.15299234264E+02 0.17161433386E+02 0.18479222977E+02
 0.18956332731E+02 0.18479222977E+02 0.17161433386E+02 0.15299234264E+02 0.13264866881E+02
 0.11396343668E+02 0.99336416641E+01 0.90139960985E+01 0.87067251390E+01 0.90599523179E+01
 0.10139334616E+02 0.12042982094E+02 0.14873345747E+02 0.18653320215E+02 0.23205758988E+02
 0.28060411528E+02 0.32470645549E+02 0.35582036192E+02 0.39706406753E+02 0.38264345711E+02
 0.34517153710E+02 0.29556694790E+02 0.24167007510E+02 0.19194182411E+02 0.15212785730E+02
 0.12427394500E+02 0.10783520340E+02 0.10139334616E+02 0.10391130913E+02 0.11511671276E+02
 0.13517361249E+02 0.16388744834E+02 0.19964759760E+02 0.23853929509E+02 0.27432616245E+02
 0.29977769571E+02 0.30901756137E+02 0.29977769571E+02 0.27432616245E+02 0.23853929509E+02
 0.19964759760E+02 0.16388744834E+02 0.13517361249E+02 0.11511671276E+02 0.10391130913E+02
 0.10139334616E+02 0.10783520340E+02 0.12427394500E+02 0.15212785730E+02 0.19194182411E+02
 0.24167007510E+02 0.29556694790E+02 0.34517153710E+02 0.38264345711E+02 0.69345249123E+02
 0.64969192044E+02 0.53894494512E+02 0.40933882871E+02 0.30452107115E+02 0.23287242545E+02
 0.17885800723E+02 0.14292972972E+02 0.12427394500E+02 0.12042982094E+02 0.12974054755E+02
 0.15222278660E+02 0.18898430951E+02 0.24062275430E+02 0.30501590601E+02 0.37550882845E+02
 0.44251256298E+02 0.49281199797E+02 0.51171906685E+02 0.49281199797E+02 0.44251256298E+02
 0.37550882845E+02 0.30501590601E+02 0.24062275430E+02 0.18898430951E+02 0.15222278660E+02
 0.12974054755E+02 0.12042982094E+02 0.12427394500E+02 0.14292972972E+02 0.17885800723E+02
 0.23287242545E+02 0.30452107115E+02 0.40933882871E+02 0.53894494512E+02 0.64969192044E+02
 0.16075821747E+03 0.14960492318E+03 0.12048649874E+03 0.84223539639E+02 0.52658875079E+02
 0.32756105631E+02 0.23241975003E+02 0.17885800723E+02 0.15212785730E+02 0.14873345747E+02
 0.16599728392E+02 0.20420596256E+02 0.26580910517E+02 0.35242422109E+02 0.46347221594E+02
 0.59924130158E+02 0.74104605578E+02 0.85150431775E+02 0.89348402015E+02 0.85150431775E+02
 0.74104605578E+02 0.59924130158E+02 0.46347221594E+02 0.35242422109E+02 0.26580910517E+02
 0.20420596256E+02 0.16599728392E+02 0.14873345747E+02 0.15212785730E+02 0.17885800723E+02
 0.23241975003E+02 0.32756105631E+02 0.52658875079E+02 0.84223539639E+02 0.12048649874E+03
 0.14960492318E+03 0.33419818935E+03 0.31269452814E+03 0.25526828862E+03 0.18018340845E+03
 0.10921296823E+03 0.58620082272E+02 0.32756105631E+02 0.23287242545E+02 0.19194182411E+02
 0.18653320215E+02 0.21304145184E+02 0.27205368995E+02 0.36759343666E+02 0.50723316128E+02
 0.71095314747E+02 0.97450728545E+02 0.12511525426E+03 0.14650696962E+03 0.15459049834E+03
 0.14650696962E+03 0.12511525426E+03 0.97450728545E+02 0.71095314747E+02 0.50723316128E+02
 0.36759343666E+02 0.27205368995E+02 0.21304145184E+02 0.18653320215E+02 0.19194182411E+02
 0.23287242545E+02 0.32756105631E+02 0.58620082272E+02 0.10921296823E+03 0.18018340845E+03
 0.25526828862E+03 0.31269452814E+03 0.58008429769E+03 0.54620429121E+03 0.45428143175E+03
 0.33001343808E+03 0.20585253483E+03 0.10921296823E+03 0.52658875079E+02 0.30452107115E+02
 0.24167007510E+02 0.23205758988E+02 0.26876948746E+02 0.35276120377E+02 0.49187572402E+02
 0.72011766380E+02 0.10682609893E+03 0.15149461741E+03 0.19754972110E+03 0.23265054724E+03
 0.24581380907E+03 0.23265054724E+03 0.19754972110E+03 0.15149461741E+03 0.10682609893E+03
 0.72011766380E+02 0.49187572402E+02 0.35276120377E+02 0.26876948746E+02 0.23205758988E+02
 0.24167007510E+02 0.30452107115E+02 0.52658875079E+02 0.10921296823E+03 0.20585253483E+03
 0.33001343808E+03 0.45428143175E+03 0.54620429121E+03 0.85922412919E+03 0.81317414149E+03
 0.68675836626E+03 0.51171244385E+03 0.33001343808E+03 0.18018340845E+03 0.84223539639E+02
 0.40933882871E+02 0.29556694790E+02 0.28060411528E+02 0.32758196112E+02 0.43794949428E+02
 0.63473612573E+02 0.97781631103E+02 0.14977904690E+03 0.21512702856E+03 0.28125169544E+03
 0.33099732957E+03 0.34953097830E+03 0.33099732957E+03 0.28125169544E+03 0.21512702856E+03
 0.14977904690E+03 0.97781631103E+02 0.63473612573E+02 0.43794949428E+02 0.32758196112E+02
 0.28060411528E+02 0.29556694790E+02 0.40933882871E+02 0.84223539639E+02 0.18018340845E+03
 0.33001343808E+03 0.51171244385E+03 0.68675836626E+03 0.81317414149E+03 0.11158404670E+04
 0.10598876945E+04 0.90496607577E+03 0.68675836626E+03 0.45428143175E+03 0.25526828862E+03
 0.12048649874E+03 0.53894494512E+02 0.34517153710E+02 0.32470645549E+02 0.38064910234E+02
 0.51597648288E+02 0.77504021573E+02 0.12317397490E+03 0.19128866358E+03 0.27533904923E+03
 0.35914921840E+03 0.42157934394E+03 0.44472419366E+03 0.42157934394E+03 0.35914921840E+03
 0.27533904923E+03 0.19128866358E+03 0.12317397490E+03 0.77504021573E+02 0.51597648288E+02
 0.38064910234E+02 0.32470645549E+02 0.34517153710E+02 0.53894494512E+02 0.12048649874E+03
 0.25526828862E+03 0.45428143175E+03 0.68675836626E+03 0.90496607577E+03 0.10598876945E+04
 0.12954797545E+04 0.12332154254E+04 0.10598876945E+04 0.81317414149E+03 0.54620429121E+03
 0.31269452814E+03 0.14960492318E+03 0.64969192044E+02 0.38264345711E+02 0.35582036192E+02
 0.41793019640E+02 0.57244831637E+02 0.87925466170E+02 0.14186357665E+03 0.22132060200E+03
 0.31820819608E+03 0.41392879413E+03 0.48478877302E+03 0.51097705996E+03 0.48478877302E+03
 0.41392879413E+03 0.31820819608E+03 0.22132060200E+03 0.14186357665E+03 0.87925466170E+02
 0.57244831637E+02 0.41793019640E+02 0.35582036192E+02 0.38264345711E+02 0.64969192044E+02
 0.14960492318E+03 0.31269452814E+03 0.54620429121E+03 0.81317414149E+03 0.10598876945E+04
 0.12332154254E+04 0.12954797545E+04 0.12332154254E+04 0.10598876945E+04 0.81317414149E+03
 0.54620429121E+03 0.31269452814E+03 0.14960492318E+03 0.64969192044E+02 0.38264345711E+02
 0.35582036192E+02 0.41793019640E+02 0.57244831637E+02 0.87925466170E+02 0.14186357665E+03
 0.22132060200E+03 0.31820819608E+03 0.41392879413E+03 0.48478877302E+03 0.51097705996E+03
 0.48478877302E+03 0.41392879413E+03 0.31820819608E+03 0.22132060200E+03 0.14186357665E+03
 0.87925466170E+02 0.57244831637E+02 0.41793019640E+02 0.35582036192E+02 0.38264345711E+02
 0.64969192044E+02 0.14960492318E+03 0.31269452814E+03 0.54620429121E+03 0.81317414149E+03
 0.10598876945E+04 0.12332154254E+04 0.12332154254E+04 0.11730898777E+04 0.10060189679E+04
 0.76904754747E+03 0.51394349135E+03 0.29238803510E+03 0.13919404309E+03 0.60948805889E+02
 0.36925527561E+02 0.34501692903E+02 0.40500531037E+02 0.55269560344E+02 0.84265416977E+02
 0.13532040515E+03 0.21085440548E+03 0.30333003874E+03 0.39497767208E+03 0.46296525050E+03
 0.48811847604E+03 0.46296525050E+03 0.39497767208E+03 0.30333003874E+03 0.21085440548E+03
 0.13532040515E+03 0.84265416977E+02 0.55269560344E+02 0.40500531037E+02 0.34501692903E+02
 0.36925527561E+02 0.60948805889E+02 0.13919404309E+03 0.29238803510E+03 0.51394349135E+03
 0.76904754747E+03 0.10060189679E+04 0.11730898777E+04 0.10598876945E+04 0.10060189679E+04
 0.85712200626E+03 0.64810653675E+03 0.42655389647E+03 0.23825542817E+03 0.11207506843E+03
 0.50798213915E+02 0.33417391255E+02 0.31513282198E+02 0.36918127266E+02 0.49892635397E+02
 0.74390510192E+02 0.11755532935E+03 0.18217308146E+03 0.26221306471E+03 0.34226417426E+03
 0.40201452672E+03 0.42418824359E+03 0.40201452672E+03 0.34226417426E+03 0.26221306471E+03
 0.18217308146E+03 0.11755532935E+03 0.74390510192E+02 0.49892635397E+02 0.36918127266E+02
 0.31513282198E+02 0.33417391255E+02 0.50798213915E+02 0.11207506843E+03 0.23825542817E+03
 0.42655389647E+03 0.64810653675E+03 0.85712200626E+03 0.10060189679E+04 0.81317414149E+03
 0.76904754747E+03 0.64810653675E+03 0.48118703460E+03 0.30880958304E+03 0.16774846529E+03
 0.78467273899E+02 0.38964545091E+02 0.28675324979E+02 0.27274652250E+02 0.31815948506E+02
 0.42433425677E+02 0.61101990347E+02 0.93477273455E+02 0.14265551491E+03 0.20466791195E+03
 0.26759353354E+03 0.31502282221E+03 0.33271032472E+03 0.31502282221E+03 0.26759353354E+03
 0.20466791195E+03 0.14265551491E+03 0.93477273455E+02 0.61101990347E+02 0.42433425677E+02
 0.31815948506E+02 0.27274652250E+02 0.28675324979E+02 0.38964545091E+02 0.78467273899E+02
 0.16774846529E+03 0.30880958304E+03 0.48118703460E+03 0.64810653675E+03 0.76904754747E+03
 0.54620429121E+03 0.51394349135E+03 0.42655389647E+03 0.30880958304E+03 0.19181513811E+03
 0.10154413644E+03 0.49453652039E+02 0.29383006027E+02 0.23492282326E+02 0.22603744939E+02
 0.26155731600E+02 0.34240218324E+02 0.47547801232E+02 0.69101838557E+02 0.10192912669E+03
 0.14413909192E+03 0.18776367534E+03 0.22107003784E+03 0.23357145614E+03 0.22107003784E+03
 0.18776367534E+03 0.14413909192E+03 0.10192912669E+03 0.69101838557E+02 0.47547801232E+02
 0.34240218324E+02 0.26155731600E+02 0.22603744939E+02 0.23492282326E+02 0.29383006027E+02
 0.49453652039E+02 0.10154413644E+03 0.19181513811E+03 0.30880958304E+03 0.42655389647E+03
 0.51394349135E+03 0.31269452814E+03 0.29238803510E+03 0.23825542817E+03 0.16774846529E+03
 0.10154413644E+03 0.54853502648E+02 0.31346575437E+02 0.22611915005E+02 0.18708159012E+02
 0.18216246299E+02 0.20783950332E+02 0.26468545322E+02 0.35658424750E+02 0.48964857840E+02
 0.68176043434E+02 0.92993708581E+02 0.11907285713E+03 0.13926426504E+03 0.14689976491E+03
 0.13926426504E+03 0.11907285713E+03 0.92993708581E+02 0.68176043434E+02 0.48964857840E+02
 0.35658424750E+02 0.26468545322E+02 0.20783950332E+02 0.18216246299E+02 0.18708159012E+02
 0.22611915005E+02 0.31346575437E+02 0.54853502648E+02 0.10154413644E+03 0.16774846529E+03
 0.23825542817E+03 0.29238803510E+03 0.14960492318E+03 0.13919404309E+03 0.11207506843E+03
 0.78467273899E+02 0.49453652039E+02 0.31346575437E+02 0.22555033396E+02 0.17422973655E+02
 0.14873797645E+02 0.14564835704E+02 0.16239190138E+02 0.19925188500E+02 0.25857085241E+02
 0.34189327810E+02 0.44788166908E+02 0.57606277522E+02 0.70948948208E+02 0.81335961907E+02
 0.85283758318E+02 0.81335961907E+02 0.70948948208E+02 0.57606277522E+02 0.44788166908E+02
 0.34189327810E+02 0.25857085241E+02 0.19925188500E+02 0.16239190138E+02 0.14564835704E+02
 0.14873797645E+02 0.17422973655E+02 0.22555033396E+02 0.31346575437E+02 0.49453652039E+02
 0.78467273899E+02 0.11207506843E+03 0.13919404309E+03 0.64969192044E+02 0.60948805889E+02
 0.50798213915E+02 0.38964545091E+02 0.29383006027E+02 0.22611915005E+02 0.17422973655E+02
 0.13974896980E+02 0.12186696902E+02 0.11823068830E+02 0.12726822942E+02 0.14899942819E+02
 0.18447101798E+02 0.23422882044E+02 0.29621158326E+02 0.36397503846E+02 0.42781225918E+02
 0.47542799215E+02 0.49328292937E+02 0.47542799215E+02 0.42781225918E+02 0.36397503846E+02
 0.29621158326E+02 0.23422882044E+02 0.18447101798E+02 0.14899942819E+02 0.12726822942E+02
 0.11823068830E+02 0.12186696902E+02 0.13974896980E+02 0.17422973655E+02 0.22611915005E+02
 0.29383006027E+02 0.38964545091E+02 0.50798213915E+02 0.60948805889E+02 0.38264345711E+02
 0.36925527561E+02 0.33417391255E+02 0.28675324979E+02 0.23492282326E+02 0.18708159012E+02
 0.14873797645E+02 0.12186696902E+02 0.10597537746E+02 0.99734712308E+01 0.10216985966E+02
 0.11302070716E+02 0.13242821611E+02 0.16017682450E+02 0.19468850214E+02 0.23217992360E+02
 0.26665030256E+02 0.29115340810E+02 0.30004692920E+02 0.29115340810E+02 0.26665030256E+02
 0.23217992360E+02 0.19468850214E+02 0.16017682450E+02 0.13242821611E+02 0.11302070716E+02
 0.10216985966E+02 0.99734712308E+01 0.10597537746E+02 0.12186696902E+02 0.14873797645E+02
 0.18708159012E+02 0.23492282326E+02 0.28675324979E+02 0.33417391255E+02 0.36925527561E+02
 0.35582036192E+02 0.34501692903E+02 0.31513282198E+02 0.27274652250E+02 0.22603744939E+02