    5    5   99    2
  0.1328602E+02  0.4050000E-09  0.4050000E-09  0.4050000E-09  0.5000000E-15
  1.000000000000000E-004
  CAR 
 unknown system                          
     42     10     28
 
  0.8333333E-01  0.8333333E-01  0.8333333E-01  0.3703704E-01
    1      -55.390824    -50.912537   1.000000   1.000000
    2      -55.390554    -50.912361   1.000000   1.000000
    3      -55.390554    -50.912361   1.000000   1.000000
    4      -31.083890    -31.080925   1.000000   1.000000
    5      -15.589731    -15.324324   1.000000   1.000000
    6      -14.578506    -14.121029   1.000000   1.000000
    7      -14.578506    -14.121029   1.000000   1.000000
    8      -13.081538    -13.063371   1.000000   1.000000
    9      -13.081538    -13.063371   1.000000   1.000000
   10      -13.039883    -13.029103   1.000000   1.000000
   11       -5.013774     -1.758961   1.000000   1.000000
   12       -5.013774     -1.564858   1.000000   1.000000
   13       -5.010538     -1.564858   1.000000   1.000000
   14       -4.099032      0.737062   1.000000   1.000000
   15       -4.099032      0.737063   1.000000   1.000000
   16       -1.974291      0.973417   1.000000   1.000000
   17       -1.456169      1.096147   1.000000   1.000000
   18       -1.456169      1.291481   1.000000   1.000000
   19        0.568114      1.291481   1.000000   1.000000
   20        0.568115      3.343368   1.000000   0.000000
   21        0.754684      3.381405   1.000000   0.000000
   22        0.828727      3.381407   1.000000   0.000000
   23        1.223543      3.774942   1.000000   0.000000
   24        1.223543      3.774943   1.005268   0.000000
   25        7.300411      7.554199   0.000000   0.000000
   26        7.567829      7.613251   0.000000   0.000000
   27        7.567863      7.613262   0.000000   0.000000
   28        9.608340      9.835140   0.000000   0.000000
 
  0.2500000E+00  0.8333333E-01  0.8333333E-01  0.1111111E+00
    1      -55.390971    -50.912906   1.000000   1.000000
    2      -55.390725    -50.912445   1.000000   1.000000
    3      -55.390612    -50.912367   1.000000   1.000000
    4      -31.078288    -31.075375   1.000000   1.000000
    5      -15.565219    -15.305839   1.000000   1.000000
    6      -14.650258    -14.290418   1.000000   1.000000
    7      -14.557770    -14.093556   1.000000   1.000000
    8      -13.082023    -13.069258   1.000000   1.000000
    9      -13.048212    -13.029931   1.000000   1.000000
   10      -12.889666    -12.840547   1.000000   1.000000
   11       -5.101467     -2.082567   1.000000   1.000000
   12       -5.092861     -1.530848   1.000000   1.000000
   13       -5.012473     -1.512425   1.000000   1.000000
   14       -4.983502      0.055932   1.000000   1.000000
   15       -4.096892      0.195613   1.000000   1.000000
   16       -1.993763      0.639919   1.000000   1.000000
   17       -1.374872      0.995535   1.000000   1.000000
   18       -0.724407      1.014121   1.000000   1.000000
   19        0.266265      1.149499   1.000000   1.000000
   20        0.387578      3.387568   1.000000   0.000000
   21        0.551934      3.717381   1.000000   0.000000
   22        0.763778      3.814766   1.000000   0.000000
   23        1.126453      3.872175   1.000000   0.000000
   24        1.288833      4.490849   1.059048   0.000000
   25        8.117302      8.228192   0.000000   0.000000
   26        8.157021      8.234070   0.000000   0.000000
   27        8.391559      8.589135   0.000000   0.000000
   28        9.830990      9.897033   0.000000   0.000000
 
  0.4166667E+00  0.8333333E-01  0.8333333E-01  0.1111111E+00
    1      -55.391311    -50.913452   1.000000   1.000000
    2      -55.390850    -50.912502   1.000000   1.000000
    3      -55.390642    -50.912344   1.000000   1.000000
    4      -31.072672    -31.069812   1.000000   1.000000
    5      -15.578998    -15.313520   1.000000   1.000000
    6      -14.646872    -14.375476   1.000000   1.000000
    7      -14.536576    -14.065513   1.000000   1.000000
    8      -13.082756    -13.075885   1.000000   1.000000
    9      -13.025431    -13.010733   1.000000   1.000000
   10      -12.759208    -12.696190   1.000000   1.000000
   11       -5.659894     -2.364557   1.000000   1.000000
   12       -5.182027     -1.484925   1.000000   1.000000
   13       -5.167066     -1.446349   1.000000   1.000000
   14       -5.012560     -0.566753   1.000000   1.000000
   15       -4.095704     -0.181229   1.000000   1.000000
   16       -1.908401      0.465487   1.000000   1.000000
   17       -1.314108      0.781248   1.000000   1.000000
   18       -0.573315      0.801127   1.000000   1.000000
   19        0.051926      1.036263   1.000000   1.000000
   20        0.276839      3.410517   1.000000   0.000000
   21        0.676164      3.750413   1.000000   0.000000
   22        0.798178      4.202954   1.000000   0.000000
   23        0.962031      4.217769   1.000000   0.000000
   24        1.172298      4.948712   1.082224   0.000000
   25        8.809896      8.907398   0.000000   0.000000
   26        8.846612      8.937622   0.000000   0.000000
   27        9.859126      9.873584   0.000000   0.000000
   28       10.038736     10.111742   0.000000   0.000000
 
  0.2500000E+00  0.2500000E+00  0.8333333E-01  0.1111111E+00
    1      -55.391047    -50.912941   1.000000   1.000000
    2      -55.390899    -50.912876   1.000000   1.000000
    3      -55.390808    -50.912479   1.000000   1.000000
    4      -31.072952    -31.070083   1.000000   1.000000
    5      -15.465567    -15.213916   1.000000   1.000000
    6      -14.723203    -14.398848   1.000000   1.000000
    7      -14.562972    -14.142515   1.000000   1.000000
    8      -13.073520    -13.061380   1.000000   1.000000
    9      -12.975824    -12.918037   1.000000   1.000000
   10      -12.873256    -12.840089   1.000000   1.000000
   11       -5.208203     -2.376461   1.000000   1.000000
   12       -5.189057     -1.561354   1.000000   1.000000
   13       -5.105110     -1.429764   1.000000   1.000000
   14       -5.097822     -0.695497   1.000000   1.000000
   15       -4.686150      0.084579   1.000000   1.000000
   16       -2.155331      0.175494   1.000000   1.000000
   17       -0.973594      0.887544   1.000000   1.000000
   18       -0.182990      0.914497   1.000000   1.000000
   19       -0.163802      1.366867   1.000000   1.016522
   20        0.170173      3.771125   1.000000   0.000000
   21        0.464151      3.867499   1.000000   0.000000
   22        0.944385      3.970032   1.000000   0.000000
   23        1.056009      4.112483   1.000000   0.000000
   24        1.710383      5.039576   0.487135   0.000000
   25        8.547225      8.642703   0.000000   0.000000
   26        8.802253      8.930399   0.000000   0.000000
   27        8.867685      8.997109   0.000000   0.000000
   28       10.144718     10.342109   0.000000   0.000000
 
  0.4166667E+00  0.2500000E+00  0.8333333E-01  0.2222222E+00
    1      -55.391246    -50.913396   1.000000   1.000000
    2      -55.390895    -50.912848   1.000000   1.000000
    3      -55.390686    -50.912369   1.000000   1.000000
    4      -31.067586    -31.064764   1.000000   1.000000
    5      -15.387874    -15.127506   1.000000   1.000000
    6      -14.753137    -14.501125   1.000000   1.000000
    7      -14.563763    -14.148614   1.000000   1.000000
    8      -13.079282    -13.071863   1.000000   1.000000
    9      -12.940392    -12.901990   1.000000   1.000000
   10      -12.822369    -12.766353   1.000000   1.000000
   11       -5.707398     -2.652715   1.000000   1.000000
   12       -5.311059     -1.589458   1.000000   1.000000
   13       -5.183287     -1.313614   1.000000   1.000000
   14       -5.108154     -1.236421   1.000000   1.000000
   15       -4.825395     -0.287350   1.000000   1.000000
   16       -2.099487      0.172780   1.000000   1.000000
   17       -0.775800      0.632568   1.000000   1.000000
   18       -0.561575      0.841650   1.000000   1.000000
   19        0.017466      1.457322   1.000000   1.013779
   20        0.129633      3.829585   1.000000   0.000000
   21        0.594769      4.116408   1.000000   0.000000
   22        0.869160      4.214361   1.000000   0.000000
   23        1.159064      4.271107   1.000000   0.000000
   24        1.935184      5.567817   0.081725   0.000000
   25        9.110046      9.209938   0.000000   0.000000
   26        9.425224      9.533158   0.000000   0.000000
   27        9.673877      9.770099   0.000000   0.000000
   28       10.406934     10.492354   0.000000   0.000000
 
  0.4166667E+00  0.4166667E+00  0.8333333E-01  0.1111111E+00
    1      -55.391332    -50.913449   1.000000   1.000000
    2      -55.391222    -50.913377   1.000000   1.000000
    3      -55.390688    -50.912354   1.000000   1.000000
    4      -31.062500    -31.059716   1.000000   1.000000
    5      -15.114945    -14.849259   1.000000   1.000000
    6      -14.847813    -14.616921   1.000000   1.000000
    7      -14.683896    -14.332330   1.000000   1.000000
    8      -13.058362    -13.053986   1.000000   1.000000
    9      -12.886446    -12.829445   1.000000   1.000000
   10      -12.864855    -12.815289   1.000000   1.000000
   11       -5.875321     -2.975461   1.000000   1.000000
   12       -5.438835     -1.699965   1.000000   1.000000
   13       -5.322100     -1.679532   1.000000   1.000000
   14       -5.196873     -1.075087   1.000000   1.000000
   15       -5.194474     -0.349306   1.000000   1.000000
   16       -2.084577     -0.254079   1.000000   1.000000
   17       -0.712187      0.678232   1.000000   1.000000
   18       -0.375312      0.730175   1.000000   1.000000
   19        0.096142      1.839452   1.000000   0.179098
   20        0.104703      4.165970   1.000000   0.000000
   21        0.545456      4.219836   1.000000   0.000000
   22        0.657557      4.249804   1.000000   0.000000
   23        1.476222      4.407981   1.000000   0.000000
   24        2.543539      6.229832  -0.001133   0.000000
   25        9.283567      9.344462   0.000000   0.000000
   26        9.570758      9.666662   0.000000   0.000000
   27       10.300474     10.418628   0.000000   0.000000
   28       10.354531     10.467627   0.000000   0.000000
 
  0.2500000E+00  0.2500000E+00  0.2500000E+00  0.3703704E-01
    1      -55.390956    -50.912886   1.000000   1.000000
    2      -55.390952    -50.912886   1.000000   1.000000
    3      -55.390952    -50.912869   1.000000   1.000000
    4      -31.067824    -31.064998   1.000000   1.000000
    5      -15.339676    -15.098694   1.000000   1.000000
    6      -14.647477    -14.304607   1.000000   1.000000
    7      -14.647477    -14.304607   1.000000   1.000000
    8      -13.060984    -13.020716   1.000000   1.000000
    9      -13.060984    -13.020716   1.000000   1.000000
   10      -12.845105    -12.811569   1.000000   1.000000
   11       -5.231404     -2.640153   1.000000   1.000000
   12       -5.202297     -1.521513   1.000000   1.000000
   13       -5.202297     -1.521513   1.000000   1.000000
   14       -5.170349     -0.796066   1.000000   1.000000
   15       -5.170349     -0.469387   1.000000   1.000000
   16       -2.855831     -0.469386   1.000000   1.000000
   17       -0.361859      1.163951   1.000000   1.001355
   18       -0.091398      1.163953   1.000000   1.001920
   19       -0.091398      1.495791   1.000000   1.005912
   20        0.292091      3.977038   1.000000   0.000000
   21        0.292093      4.048512   1.000000   0.000000
   22        1.143136      4.048513   1.000000   0.000000
   23        1.657792      5.022857   0.966482   0.000000
   24        1.657792      5.022860   0.311664   0.000000
   25        8.874100      9.008799   0.000000   0.000000
   26        8.979591      9.074190   0.000000   0.000000
   27        8.983707      9.080366   0.000000   0.000000
   28       10.222382     10.331212   0.000000   0.000000
 
  0.4166667E+00  0.2500000E+00  0.2500000E+00  0.1111111E+00
    1      -55.391219    -50.913365   1.000000   1.000000
    2      -55.390949    -50.912865   1.000000   1.000000
    3      -55.390923    -50.912849   1.000000   1.000000
    4      -31.062684    -31.059900   1.000000   1.000000
    5      -15.208435    -14.957569   1.000000   1.000000
    6      -14.729719    -14.475428   1.000000   1.000000
    7      -14.563239    -14.192786   1.000000   1.000000
    8      -13.155444    -13.141763   1.000000   1.000000
    9      -12.979286    -12.934364   1.000000   1.000000
   10      -12.885937    -12.845004   1.000000   1.000000
   11       -5.733287     -2.922793   1.000000   1.000000
   12       -5.323134     -1.582902   1.000000   1.000000
   13       -5.261738     -1.466737   1.000000   1.000000
   14       -5.194652     -1.226009   1.000000   1.000000
   15       -5.185320     -0.815422   1.000000   1.000000
   16       -3.049333     -0.465347   1.000000   1.000000
   17       -0.501899      1.177719   1.000000   1.008114
   18       -0.111710      1.255124   1.000000   1.008189
   19       -0.029721      1.577788   1.000000   0.835574
   20        0.307518      4.057844   1.000000   0.000000
   21        0.907110      4.282239   1.000000   0.000000
   22        1.272276      4.314120   1.000000   0.000000
   23        1.563398      4.989600   0.946547   0.000000
   24        2.024068      5.705483  -0.001712   0.000000
   25        9.171372      9.284961   0.000000   0.000000
   26        9.348386      9.474561   0.000000   0.000000
   27        9.408407      9.497276   0.000000   0.000000
   28        9.956770     10.038776   0.000000   0.000000
 
  0.4166667E+00  0.4166667E+00  0.2500000E+00  0.1111111E+00
    1      -55.391122    -50.913267   1.000000   1.000000
    2      -55.391013    -50.913206   1.000000   1.000000
    3      -55.390912    -50.912844   1.000000   1.000000
    4      -31.057773    -31.055028   1.000000   1.000000
    5      -14.953826    -14.702318   1.000000   1.000000
    6      -14.731066    -14.484697   1.000000   1.000000
    7      -14.613023    -14.291124   1.000000   1.000000
    8      -13.168770    -13.158355   1.000000   1.000000
    9      -13.044084    -13.000437   1.000000   1.000000
   10      -12.975049    -12.935128   1.000000   1.000000
   11       -5.873467     -3.250878   1.000000   1.000000
   12       -5.535189     -1.669307   1.000000   1.000000
   13       -5.394570     -1.454110   1.000000   1.000000
   14       -5.274795     -1.433623   1.000000   1.000000
   15       -5.271364     -0.835071   1.000000   1.000000
   16       -3.378616     -0.824211   1.000000   1.000000
   17       -0.475073      1.356312   1.000000   1.017826
   18       -0.094268      1.393296   1.000000   1.016176
   19       -0.076109      1.871156   1.000000   0.034769
   20        0.898789      4.323634   1.000000   0.000000
   21        1.057398      4.340844   1.000000   0.000000
   22        1.508999      4.455232   1.000000   0.000000
   23        1.587132      5.271450   0.812273   0.000000
   24        2.539110      6.223933  -0.000859   0.000000
   25        8.937075      9.038873   0.000000   0.000000
   26        9.251123      9.366498   0.000000   0.000000
   27        9.313516      9.440614   0.000000   0.000000
   28       10.164734     10.224195   0.000000   0.000000
 
  0.4166667E+00  0.4166667E+00  0.4166667E+00  0.3703704E-01
    1      -55.391175    -50.913322   1.000000   1.000000
    2      -55.391049    -50.913219   1.000000   1.000000
    3      -55.391049    -50.913219   1.000000   1.000000
    4      -31.053047    -31.050345   1.000000   1.000000
    5      -14.734193    -14.484704   1.000000   1.000000
    6      -14.588880    -14.313913   1.000000   1.000000
    7      -14.588880    -14.313913   1.000000   1.000000
    8      -13.226918    -13.209604   1.000000   1.000000
    9      -13.226918    -13.209604   1.000000   1.000000
   10      -13.138937    -13.111180   1.000000   1.000000
   11       -5.871823     -3.596619   1.000000   1.000000
   12       -5.871823     -1.657551   1.000000   1.000000
   13       -5.363211     -1.657550   1.000000   1.000000
   14       -5.341462     -1.222534   1.000000   1.000000
   15       -5.341462     -1.102931   1.000000   1.000000
   16       -3.937681     -1.102931   1.000000   1.000000
   17       -0.245509      1.824100   1.000000   0.490515
   18       -0.138685      1.824101   1.000000   0.457012
   19       -0.138683      1.931575   1.000000  -0.032033
   20        1.451350      4.493096   1.000000   0.000000
   21        1.451350      4.507737   1.000000   0.000000
   22        1.565482      4.507737   1.000000   0.000000
   23        2.521772      6.210276  -0.280417   0.000000
   24        2.521773      6.210284  -0.000079   0.000000
   25        8.552036      8.658966   0.000000   0.000000
   26        8.650780      8.753094   0.000000   0.000000
   27        8.650814      8.754360   0.000000   0.000000
   28       10.898860     10.903557   0.000000   0.000000
