 running on    8 total cores
 distrk:  each k-point on    8 cores,    1 groups
 distr:  one band on    4 cores,    2 groups
 using from now: INCAR     
 vasp.5.4.1 24Jun15 (build Jan 06 2016 13:10:00) complex                        
  
 POSCAR found type information on POSCAR  Sr Fe O 
 POSCAR found :  3 types and       5 ions
 scaLAPACK will be used

 ----------------------------------------------------------------------------- 
|                                                                             |
|  ADVICE TO THIS USER RUNNING 'VASP/VAMP'   (HEAR YOUR MASTER'S VOICE ...):  |
|                                                                             |
|      You have a (more or less) 'small supercell' and for smaller cells      |
|      it is recommended  to use the reciprocal-space projection scheme!      |
|      The real space optimization is not  efficient for small cells and it   |
|      is also less accurate ...                                              |
|      Therefore set LREAL=.FALSE. in the  INCAR file                         |
|                                                                             |
 ----------------------------------------------------------------------------- 

 LDA part: xc-table for Ceperly-Alder, standard interpolation
 POSCAR found type information on POSCAR  Sr Fe O 
 POSCAR found :  3 types and       5 ions
 POSCAR, INCAR and KPOINTS ok, starting setup
 WARNING: small aliasing (wrap around) errors must be expected
 FFT: planning ...
 WAVECAR not read
 entering main loop
       N       E                     dE             d eps       ncg     rms          rms(c)
DAV:   1     0.323067735590E+03    0.32307E+03   -0.17162E+04  1192   0.114E+03
DAV:   2    -0.171204046192E+02   -0.34019E+03   -0.32990E+03  1144   0.387E+02
DAV:   3    -0.366851323139E+02   -0.19565E+02   -0.19381E+02  1568   0.981E+01
DAV:   4    -0.372768807248E+02   -0.59175E+00   -0.58774E+00  1708   0.130E+01
DAV:   5    -0.372875235053E+02   -0.10643E-01   -0.10554E-01  1512   0.144E+00    0.282E+01
RMM:   6    -0.442557287061E+02   -0.69682E+01   -0.13205E+02  1243   0.903E+01    0.454E+01
RMM:   7    -0.323146600746E+02    0.11941E+02   -0.34058E+01  1140   0.411E+01    0.176E+01
RMM:   8    -0.320228314290E+02    0.29183E+00   -0.64419E-01  1195   0.595E+00    0.111E+01
RMM:   9    -0.312272633484E+02    0.79557E+00   -0.15556E+00  1158   0.860E+00    0.520E+00
RMM:  10    -0.312083523803E+02    0.18911E-01   -0.79992E-01  1160   0.599E+00    0.158E+00
RMM:  11    -0.312361157256E+02   -0.27763E-01   -0.44137E-02  1128   0.132E+00    0.134E+00
RMM:  12    -0.312354325970E+02    0.68313E-03   -0.18161E-02  1078   0.897E-01    0.726E-01
RMM:  13    -0.312373952510E+02   -0.19627E-02   -0.25894E-02  1050   0.114E+00    0.241E-01
RMM:  14    -0.312377468790E+02   -0.35163E-03   -0.13793E-03   702   0.264E-01
   1 F= -.31237747E+02 E0= -.31237747E+02  d E =-.312377E+02  mag=     4.5121
 BRION: g(F)=  0.000E+00 g(S)=  0.000E+00
 reached required accuracy - stopping structural energy minimisation
