<?xml version="1.0" encoding="ISO-8859-1"?>
<modeling>
 <generator>
  <i name="program" type="string">vasp </i>
  <i name="version" type="string">5.4.1  </i>
  <i name="subversion" type="string">24Jun15 (build Jan 06 2016 13:10:00) complex                          parallel </i>
  <i name="platform" type="string">IFC91_ompi </i>
  <i name="date" type="string">2016 02 25 </i>
  <i name="time" type="string">14:49:22 </i>
 </generator>
 <incar>
  <i type="string" name="PREC">normal</i>
  <i type="string" name="ALGO"> Fast</i>
  <i type="int" name="ISPIN">     2</i>
  <i type="int" name="NELM">   100</i>
  <i type="int" name="IBRION">     1</i>
  <i name="EDIFF">      0.00100000</i>
  <i name="EDIFFG">     -0.01000000</i>
  <i type="int" name="NSW">    99</i>
  <i type="int" name="ISIF">     0</i>
  <i name="ENCUT">    300.00000000</i>
  <i type="string" name="LREAL">Auto</i>
  <i type="int" name="ISMEAR">    -5</i>
  <i name="SIGMA">      0.05000000</i>
  <i type="int" name="LMAXMIX">     4</i>
  <i type="logical" name="LWAVE"> F  </i>
  <v type="int" name="KPOINT_BSE">    -1     0     0     0</v>
  <i type="int" name="NELM">   100</i>
  <i type="logical" name="LDAU"> T  </i>
  <v type="int" name="LDAUTYPE">     2</v>
  <v type="int" name="LDAUL">     0     2     0</v>
  <v name="LDAUU">      0.00000000      5.30000000      0.00000000</v>
  <v name="LDAUJ">      0.00000000      0.00000000      0.00000000</v>
  <i type="int" name="LDAUPRINT">     1</i>
 </incar>
 <kpoints>
  <generation param="Monkhorst-Pack">
   <v type="int" name="divisions">       6        6        6 </v>
   <v name="usershift">      0.00000000       0.00000000       0.00000000 </v>
   <v name="genvec1">      0.16666667       0.00000000       0.00000000 </v>
   <v name="genvec2">      0.00000000       0.16666667       0.00000000 </v>
   <v name="genvec3">      0.00000000       0.00000000       0.16666667 </v>
   <v name="shift">      0.50000000       0.50000000       0.50000000 </v>
  </generation>
  <varray name="kpointlist" >
   <v>       0.08333333       0.08333333       0.08333333 </v>
   <v>       0.25000000       0.08333333       0.08333333 </v>
   <v>       0.41666667       0.08333333       0.08333333 </v>
   <v>       0.25000000       0.25000000       0.08333333 </v>
   <v>       0.41666667       0.25000000       0.08333333 </v>
   <v>       0.41666667       0.41666667       0.08333333 </v>
   <v>       0.25000000       0.25000000       0.25000000 </v>
   <v>       0.41666667       0.25000000       0.25000000 </v>
   <v>       0.41666667       0.41666667       0.25000000 </v>
   <v>       0.41666667       0.41666667       0.41666667 </v>
  </varray>
  <varray name="weights" >
   <v>       0.03703704 </v>
   <v>       0.11111111 </v>
   <v>       0.11111111 </v>
   <v>       0.11111111 </v>
   <v>       0.22222222 </v>
   <v>       0.11111111 </v>
   <v>       0.03703704 </v>
   <v>       0.11111111 </v>
   <v>       0.11111111 </v>
   <v>       0.03703704 </v>
  </varray>
  <varray name="tetrahedronlist"  type="int" >
   <v type="int" >       24        1        2        2        4 </v>
   <v type="int" >       18        2        2        4        4 </v>
   <v type="int" >       12        2        4        4        7 </v>
   <v type="int" >       12        2        3        4        5 </v>
   <v type="int" >       24        2        4        4        5 </v>
   <v type="int" >       12        4        4        5        7 </v>
   <v type="int" >       24        3        4        5        5 </v>
   <v type="int" >       24        4        5        5        8 </v>
   <v type="int" >       24        4        5        7        8 </v>
   <v type="int" >       30        3        3        5        5 </v>
   <v type="int" >       36        3        5        5        5 </v>
   <v type="int" >       12        5        5        5        8 </v>
   <v type="int" >        6        5        5        8        8 </v>
   <v type="int" >       18        1        1        2        2 </v>
   <v type="int" >       24        1        2        2        2 </v>
   <v type="int" >       12        2        2        2        4 </v>
   <v type="int" >       12        4        5        6        7 </v>
   <v type="int" >       12        5        6        7        8 </v>
   <v type="int" >       12        6        7        8        9 </v>
   <v type="int" >       24        5        5        6        8 </v>
   <v type="int" >       12        5        6        6        8 </v>
   <v type="int" >       12        6        6        8        9 </v>
   <v type="int" >       12        5        6        8        8 </v>
   <v type="int" >       12        6        8        8        9 </v>
   <v type="int" >       12        6        8        9        9 </v>
   <v type="int" >       12        5        6        8        9 </v>
   <v type="int" >       12        5        7        8        8 </v>
   <v type="int" >       24        5        8        8        9 </v>
   <v type="int" >       12        2        3        4        7 </v>
   <v type="int" >       12        3        4        5        7 </v>
   <v type="int" >       12        3        5        7        8 </v>
   <v type="int" >       12        2        2        3        4 </v>
   <v type="int" >       12        2        3        3        4 </v>
   <v type="int" >       12        3        3        4        5 </v>
   <v type="int" >       12        2        3        4        4 </v>
   <v type="int" >       12        3        4        4        5 </v>
   <v type="int" >       12        6        6        6        9 </v>
   <v type="int" >       12        6        6        9        9 </v>
   <v type="int" >       12        6        9        9        9 </v>
   <v type="int" >       12        5        5        6        9 </v>
   <v type="int" >       12        5        6        6        9 </v>
   <v type="int" >       12        5        6        9        9 </v>
   <v type="int" >       12        5        5        8        9 </v>
   <v type="int" >       12        5        8        9        9 </v>
   <v type="int" >       12        3        3        5        8 </v>
   <v type="int" >       12        3        5        5        8 </v>
   <v type="int" >       12        3        5        8        8 </v>
   <v type="int" >       24        3        3        3        5 </v>
   <v type="int" >       12        4        5        6        9 </v>
   <v type="int" >       12        4        5        8        9 </v>
   <v type="int" >       12        4        7        8        9 </v>
   <v type="int" >       12        2        3        5        8 </v>
   <v type="int" >       12        2        4        5        8 </v>
   <v type="int" >       12        2        4        7        8 </v>
   <v type="int" >       12        2        3        3        5 </v>
   <v type="int" >       12        2        2        3        5 </v>
   <v type="int" >       12        2        2        4        5 </v>
   <v type="int" >       12        2        3        5        5 </v>
   <v type="int" >       12        2        4        5        5 </v>
   <v type="int" >       12        1        2        4        7 </v>
   <v type="int" >       12        1        1        2        4 </v>
   <v type="int" >       12        1        2        4        4 </v>
   <v type="int" >       12        1        1        1        2 </v>
   <v type="int" >       12        7        8        8        9 </v>
   <v type="int" >       18        8        8        9        9 </v>
   <v type="int" >       24        8        9        9       10 </v>
   <v type="int" >       12        8        9        9        9 </v>
   <v type="int" >       24        9        9        9       10 </v>
   <v type="int" >       18        9        9       10       10 </v>
   <v type="int" >        6        4        4        5        5 </v>
   <v type="int" >       12        4        5        5        5 </v>
   <v type="int" >       36        5        5        5        6 </v>
   <v type="int" >       30        5        5        6        6 </v>
   <v type="int" >       12        9       10       10       10 </v>
   <v type="int" >       12        8        8        9       10 </v>
   <v type="int" >       12        8        9       10       10 </v>
   <v type="int" >       24        5        6        6        6 </v>
   <v type="int" >       12        7        8        9       10 </v>
   <v type="int" >       12        4        5        5        6 </v>
   <v type="int" >       12        4        4        5        6 </v>
   <v type="int" >       12        4        5        6        6 </v>
   <v type="int" >       12        2        2        2        3 </v>
   <v type="int" >       12        2        2        3        3 </v>
   <v type="int" >       12        2        3        3        3 </v>
   <v type="int" >        6       10       10       10       10 </v>
   <v type="int" >       18        6        6        6        6 </v>
   <v type="int" >       18        3        3        3        3 </v>
   <v type="int" >        6        1        1        1        1 </v>
  </varray>
  <i name="volumeweight">      0.00077160 </i>
 </kpoints>
 <parameters>
  <separator name="general" >
   <i type="string" name="SYSTEM">unknown system</i>
   <i type="logical" name="LCOMPAT"> F  </i>
  </separator>
  <separator name="electronic" >
   <i type="string" name="PREC">normal</i>
   <i name="ENMAX">    300.00000000</i>
   <i name="ENAUG">    578.34200000</i>
   <i name="EDIFF">      0.00100000</i>
   <i type="int" name="IALGO">    68</i>
   <i type="int" name="IWAVPR">    11</i>
   <i type="int" name="NBANDS">    28</i>
   <i name="NELECT">     42.00000000</i>
   <i type="int" name="TURBO">     0</i>
   <i type="int" name="IRESTART">     0</i>
   <i type="int" name="NREBOOT">     0</i>
   <i type="int" name="NMIN">     0</i>
   <i name="EREF">      0.00000000</i>
   <separator name="electronic smearing" >
    <i type="int" name="ISMEAR">    -5</i>
    <i name="SIGMA">      0.05000000</i>
    <i name="KSPACING">      0.50000000</i>
    <i type="logical" name="KGAMMA"> T  </i>
   </separator>
   <separator name="electronic projectors" >
    <i type="logical" name="LREAL"> T  </i>
    <v name="ROPT">     -0.00050000     -0.00050000     -0.00050000</v>
    <i type="int" name="LMAXPAW">  -100</i>
    <i type="int" name="LMAXMIX">     4</i>
    <i type="logical" name="NLSPLINE"> F  </i>
   </separator>
   <separator name="electronic startup" >
    <i type="int" name="ISTART">     0</i>
    <i type="int" name="ICHARG">     2</i>
    <i type="int" name="INIWAV">     1</i>
   </separator>
   <separator name="electronic spin" >
    <i type="int" name="ISPIN">     2</i>
    <i type="logical" name="LNONCOLLINEAR"> F  </i>
    <v name="MAGMOM">      1.00000000      1.00000000      1.00000000      1.00000000      1.00000000</v>
    <i name="NUPDOWN">     -1.00000000</i>
    <i type="logical" name="LSORBIT"> F  </i>
    <v name="SAXIS">      0.00000000      0.00000000      1.00000000</v>
    <i type="logical" name="LSPIRAL"> F  </i>
    <v name="QSPIRAL">      0.00000000      0.00000000      0.00000000</v>
    <i type="logical" name="LZEROZ"> F  </i>
   </separator>
   <separator name="electronic exchange-correlation" >
    <i type="logical" name="LASPH"> F  </i>
    <i type="logical" name="LMETAGGA"> F  </i>
   </separator>
   <separator name="electronic convergence" >
    <i type="int" name="NELM">   100</i>
    <i type="int" name="NELMDL">    -5</i>
    <i type="int" name="NELMIN">     2</i>
    <i name="ENINI">    300.00000000</i>
    <separator name="electronic convergence detail" >
     <i type="logical" name="LDIAG"> T  </i>
     <i type="logical" name="LSUBROT"> F  </i>
     <i name="WEIMIN">      0.00100000</i>
     <i name="EBREAK">      0.00000893</i>
     <i name="DEPER">      0.30000000</i>
     <i type="int" name="NRMM">     4</i>
     <i name="TIME">      0.40000000</i>
    </separator>
   </separator>
   <separator name="electronic mixer" >
    <i name="AMIX">      0.40000000</i>
    <i name="BMIX">      1.00000000</i>
    <i name="AMIN">      0.10000000</i>
    <i name="AMIX_MAG">      1.60000000</i>
    <i name="BMIX_MAG">      1.00000000</i>
    <separator name="electronic mixer details" >
     <i type="int" name="IMIX">     4</i>
     <i type="logical" name="MIXFIRST"> F  </i>
     <i type="int" name="MAXMIX">   -45</i>
     <i name="WC">    100.00000000</i>
     <i type="int" name="INIMIX">     1</i>
     <i type="int" name="MIXPRE">     1</i>
     <i type="int" name="MREMOVE">     5</i>
    </separator>
   </separator>
   <separator name="electronic dipolcorrection" >
    <i type="logical" name="LDIPOL"> F  </i>
    <i type="logical" name="LMONO"> F  </i>
    <i type="int" name="IDIPOL">     0</i>
    <i name="EPSILON">      1.00000000</i>
    <v name="DIPOL">   -100.00000000   -100.00000000   -100.00000000</v>
    <i name="EFIELD">      0.00000000</i>
   </separator>
  </separator>
  <separator name="grids" >
   <i type="int" name="NGX">    18</i>
   <i type="int" name="NGY">    18</i>
   <i type="int" name="NGZ">    18</i>
   <i type="int" name="NGXF">    36</i>
   <i type="int" name="NGYF">    36</i>
   <i type="int" name="NGZF">    36</i>
   <i type="logical" name="ADDGRID"> F  </i>
  </separator>
  <separator name="ionic" >
   <i type="int" name="NSW">    99</i>
   <i type="int" name="IBRION">     1</i>
   <i type="int" name="ISIF">     0</i>
   <i name="PSTRESS">      0.00000000</i>
   <i name="EDIFFG">     -0.01000000</i>
   <i type="int" name="NFREE">     0</i>
   <i name="POTIM">      0.50000000</i>
   <i name="SMASS">     -3.00000000</i>
   <i name="SCALEE">      1.00000000</i>
  </separator>
  <separator name="ionic md" >
   <i name="TEBEG">      0.00010000</i>
   <i name="TEEND">      0.00010000</i>
   <i type="int" name="NBLOCK">     1</i>
   <i type="int" name="KBLOCK">    99</i>
   <i type="int" name="NPACO">   256</i>
   <i name="APACO">     16.00000000</i>
  </separator>
  <separator name="symmetry" >
   <i type="int" name="ISYM">     2</i>
   <i name="SYMPREC">      0.00001000</i>
  </separator>
  <separator name="dos" >
   <i type="logical" name="LORBIT"> F  </i>
   <v name="RWIGS">     -1.00000000     -1.00000000     -1.00000000</v>
   <i type="int" name="NEDOS">   301</i>
   <i name="EMIN">     10.00000000</i>
   <i name="EMAX">    -10.00000000</i>
   <i name="EFERMI">      0.00000000</i>
  </separator>
  <separator name="writing" >
   <i type="int" name="NWRITE">     2</i>
   <i type="logical" name="LWAVE"> F  </i>
   <i type="logical" name="LCHARG"> T  </i>
   <i type="logical" name="LPARD"> F  </i>
   <i type="logical" name="LVTOT"> F  </i>
   <i type="logical" name="LVHAR"> F  </i>
   <i type="logical" name="LELF"> F  </i>
   <i type="logical" name="LOPTICS"> F  </i>
   <v name="STM">      0.00000000      0.00000000      0.00000000      0.00000000      0.00000000      0.00000000      0.00000000</v>
  </separator>
  <separator name="performance" >
   <i type="int" name="NPAR">     2</i>
   <i type="int" name="NSIM">     4</i>
   <i type="int" name="NBLK">    -1</i>
   <i type="logical" name="LPLANE"> T  </i>
   <i type="logical" name="LSCALAPACK"> T  </i>
   <i type="logical" name="LSCAAWARE"> F  </i>
   <i type="logical" name="LSCALU"> F  </i>
   <i type="logical" name="LASYNC"> F  </i>
   <i type="logical" name="LORBITALREAL"> F  </i>
  </separator>
  <separator name="miscellaneous" >
   <i type="int" name="IDIOT">     3</i>
   <i type="logical" name="LMUSIC"> F  </i>
   <v name="POMASS">     87.62000000     55.84700000     16.00000000</v>
   <v name="DARWINR">      0.00000000      0.00000000      0.00000000</v>
   <v name="DARWINV">      1.00000000      1.00000000      1.00000000</v>
   <i type="logical" name="LCORR"> T  </i>
  </separator>
  <i type="logical" name="GGA_COMPAT"> T  </i>
  <i type="logical" name="LBERRY"> F  </i>
  <i type="int" name="ICORELEVEL">     0</i>
  <i type="logical" name="LDAU"> T  </i>
  <v type="int" name="LDAUTYPE">     2</v>
  <v type="int" name="LDAUL">     0</v>
  <v name="LDAUU">      0.00000000</v>
  <v name="LDAUJ">      0.00000000</v>
  <i type="int" name="LDAUPRINT">     1</i>
  <i type="int" name="I_CONSTRAINED_M">     0</i>
  <separator name="electronic exchange-correlation" >
   <i type="string" name="GGA">--</i>
   <i type="int" name="VOSKOWN">     0</i>
   <i type="logical" name="LHFCALC"> F  </i>
   <i type="string" name="PRECFOCK"></i>
   <i type="logical" name="LSYMGRAD"> F  </i>
   <i type="logical" name="LHFONE"> F  </i>
   <i type="logical" name="LRHFCALC"> F  </i>
   <i type="logical" name="LTHOMAS"> F  </i>
   <i type="logical" name="LMODELHF"> F  </i>
   <i name="ENCUT4O">     -1.00000000</i>
   <i type="int" name="EXXOEP">     0</i>
   <i type="int" name="FOURORBIT">     0</i>
   <i name="AEXX">      0.00000000</i>
   <i name="HFALPHA">      0.00000000</i>
   <i name="MCALPHA">      0.00000000</i>
   <i name="ALDAX">      1.00000000</i>
   <i name="AGGAX">      1.00000000</i>
   <i name="ALDAC">      1.00000000</i>
   <i name="AGGAC">      1.00000000</i>
   <i type="int" name="NKREDX">     1</i>
   <i type="int" name="NKREDY">     1</i>
   <i type="int" name="NKREDZ">     1</i>
   <i type="logical" name="SHIFTRED"> F  </i>
   <i type="logical" name="ODDONLY"> F  </i>
   <i type="logical" name="EVENONLY"> F  </i>
   <i type="int" name="LMAXFOCK">     0</i>
   <i type="int" name="NMAXFOCKAE">     0</i>
   <i type="logical" name="LFOCKAEDFT"> F  </i>
   <i name="HFSCREEN">      0.00000000</i>
   <i name="HFSCREENC">      0.00000000</i>
   <i type="int" name="NBANDSGWLOW">     0</i>
  </separator>
  <separator name="vdW DFT" >
   <i type="logical" name="LUSE_VDW"> F  </i>
   <i name="Zab_VDW">     -0.84910000</i>
   <i name="PARAM1">      0.12340000</i>
   <i name="PARAM2">      1.00000000</i>
   <i name="PARAM3">      0.00000000</i>
  </separator>
  <separator name="model GW" >
   <i type="int" name="MODEL_GW">     0</i>
   <i name="MODEL_EPS0">      7.97161500</i>
   <i name="MODEL_ALPHA">      1.00000000</i>
  </separator>
  <separator name="linear response parameters" >
   <i type="logical" name="LEPSILON"> F  </i>
   <i type="logical" name="LRPA"> F  </i>
   <i type="logical" name="LNABLA"> F  </i>
   <i type="logical" name="LVEL"> F  </i>
   <i type="int" name="KINTER">     0</i>
   <i name="CSHIFT">      0.10000000</i>
   <i name="OMEGAMAX">     -1.00000000</i>
   <i name="DEG_THRESHOLD">      0.00200000</i>
  </separator>
  <separator name="orbital magnetization" >
   <i type="logical" name="NUCIND"> F  </i>
   <v name="MAGPOS">      0.00000000      0.00000000      0.00000000</v>
   <i type="logical" name="LNICSALL"> T  </i>
   <i type="logical" name="ORBITALMAG"> F  </i>
   <i type="logical" name="LMAGBLOCH"> F  </i>
   <i type="logical" name="LCHIMAG"> F  </i>
   <i type="logical" name="LGAUGE"> T  </i>
   <i type="int" name="MAGATOM">     0</i>
   <v name="MAGDIPOL">      0.00000000      0.00000000      0.00000000</v>
   <v name="AVECCONST">      0.00000000      0.00000000      0.00000000</v>
  </separator>
  <separator name="response functions" >
   <i type="logical" name="LADDER"> F  </i>
   <i type="logical" name="LFXC"> F  </i>
   <i type="logical" name="LHARTREE"> T  </i>
   <i type="int" name="IBSE">     0</i>
   <v type="int" name="KPOINT">    -1     0     0     0</v>
   <i type="logical" name="LTCTE"> F  </i>
   <i type="logical" name="LTETE"> F  </i>
   <i type="logical" name="LTRIPLET"> F  </i>
   <i type="logical" name="LFXCEPS"> F  </i>
   <i type="logical" name="LFXHEG"> F  </i>
   <i type="int" name="NATURALO">     0</i>
   <i type="logical" name="L2ORDER"> F  </i>
   <i type="logical" name="LUSEW"> F  </i>
   <i name="ENCUTGW">     -2.00000000</i>
   <i name="ENCUTGWSOFT">     -2.00000000</i>
   <i name="ENCUTLF">     -1.00000000</i>
   <i type="int" name="LMAXMP2">    -1</i>
   <i name="SCISSOR">      0.00000000</i>
   <i type="int" name="NOMEGA">     0</i>
   <i type="int" name="NOMEGAR">     0</i>
   <i type="int" name="NBANDSGW">    -1</i>
   <i type="int" name="NBANDSO">    -1</i>
   <i type="int" name="NBANDSV">    -1</i>
   <i type="int" name="NELM">   100</i>
   <i type="int" name="NELMHF">     1</i>
   <i type="int" name="DIM">     3</i>
   <i type="int" name="ANTIRES">     0</i>
   <i name="OMEGAMAX">    -30.00000000</i>
   <i name="OMEGAMIN">    -30.00000000</i>
   <i name="OMEGATL">   -200.00000000</i>
   <i type="int" name="OMEGAGRID">     0</i>
   <i name="CSHIFT">     -0.10000000</i>
   <i type="logical" name="SELFENERGY"> F  </i>
   <i type="logical" name="LSPECTRAL"> F  </i>
   <i type="logical" name="LSPECTRALGW"> F  </i>
   <i type="logical" name="LSINGLES"> F  </i>
   <i type="logical" name="LFERMIGW"> F  </i>
   <i type="logical" name="ODDONLYGW"> F  </i>
   <i type="logical" name="EVENONLYGW"> F  </i>
   <i type="int" name="NKREDLFX">     1</i>
   <i type="int" name="NKREDLFY">     1</i>
   <i type="int" name="NKREDLFZ">     1</i>
   <i type="int" name="MAXMEM">  1800</i>
   <i type="int" name="TELESCOPE">     0</i>
   <i type="int" name="TAUPAR">     1</i>
   <i type="int" name="OMEGAPAR">    -1</i>
   <i name="LAMBDA">      1.00000000</i>
  </separator>
  <separator name="External order field" >
   <i name="OFIELD_KAPPA">      0.00000000</i>
   <v name="OFIELD_K">      0.00000000      0.00000000      0.00000000</v>
   <i name="OFIELD_Q6_NEAR">      0.00000000</i>
   <i name="OFIELD_Q6_FAR">      0.00000000</i>
   <i name="OFIELD_A">      0.00000000</i>
  </separator>
  <separator name="solvation model" >
   <i type="logical" name="LSOL"> F  </i>
  </separator>
 </parameters>
 <atominfo>
  <atoms>       5 </atoms>
  <types>       3 </types>
  <array name="atoms" >
   <dimension dim="1">ion</dimension>
   <field type="string">element</field>
   <field type="int">atomtype</field>
   <set>
    <rc><c>Sr</c><c>   1</c></rc>
    <rc><c>Fe</c><c>   2</c></rc>
    <rc><c>O </c><c>   3</c></rc>
    <rc><c>O </c><c>   3</c></rc>
    <rc><c>O </c><c>   3</c></rc>
   </set>
  </array>
  <array name="atomtypes" >
   <dimension dim="1">type</dimension>
   <field type="int">atomspertype</field>
   <field type="string">element</field>
   <field>mass</field>
   <field>valence</field>
   <field type="string">pseudopotential</field>
   <set>
    <rc><c>   1</c><c>Sr</c><c>     87.62000000</c><c>     10.00000000</c><c>  PAW Sr                                </c></rc>
    <rc><c>   1</c><c>Fe</c><c>     55.84700000</c><c>     14.00000000</c><c>  PAW Fe                                </c></rc>
    <rc><c>   3</c><c>O </c><c>     16.00000000</c><c>      6.00000000</c><c>  PAW O_s                               </c></rc>
   </set>
  </array>
 </atominfo>
 <structure name="initialpos" >
  <crystal>
   <varray name="basis" >
    <v>       4.05000000       0.00000000       0.00000000 </v>
    <v>       0.00000000       4.05000000       0.00000000 </v>
    <v>       0.00000000       0.00000000       4.05000000 </v>
   </varray>
   <i name="volume">     66.43012500 </i>
   <varray name="rec_basis" >
    <v>       0.24691358       0.00000000       0.00000000 </v>
    <v>       0.00000000       0.24691358       0.00000000 </v>
    <v>       0.00000000       0.00000000       0.24691358 </v>
   </varray>
  </crystal>
  <varray name="positions" >
   <v>       0.50000000       0.50000000       0.50000000 </v>
   <v>       0.00000000       0.00000000       0.00000000 </v>
   <v>       0.50000000       0.00000000       0.00000000 </v>
   <v>       0.00000000       0.50000000       0.00000000 </v>
   <v>       0.00000000       0.00000000       0.50000000 </v>
  </varray>
 </structure>
 <calculation>
  <scstep>
   <time name="dav">    0.46    0.46</time>
   <time name="total">    0.56    0.56</time>
   <energy>
    <i name="alphaZ">    258.73982588 </i>
    <i name="ewald">  -3119.40737581 </i>
    <i name="hartreedc">  -1349.66962067 </i>
    <i name="XCdc">    188.94174217 </i>
    <i name="pawpsdc">   3241.81915236 </i>
    <i name="pawaedc">  -3317.81696278 </i>
    <i name="eentropy">      0.00000000 </i>
    <i name="bandstr">   -181.48740477 </i>
    <i name="atom">   4601.94837920 </i>
    <i name="e_fr_energy">    323.06773559 </i>
    <i name="e_wo_entrp">    323.06773559 </i>
    <i name="e_0_energy">    323.06773559 </i>
   </energy>
  </scstep>
  <scstep>
   <time name="dav">    0.43    0.43</time>
   <time name="total">    0.45    0.45</time>
   <energy>
    <i name="e_fr_energy">    -17.12040462 </i>
    <i name="e_wo_entrp">    -17.12040462 </i>
    <i name="e_0_energy">    -17.12040462 </i>
   </energy>
  </scstep>
  <scstep>
   <time name="dav">    0.57    0.58</time>
   <time name="total">    0.59    0.59</time>
   <energy>
    <i name="e_fr_energy">    -36.68513231 </i>
    <i name="e_wo_entrp">    -36.68513231 </i>
    <i name="e_0_energy">    -36.68513231 </i>
   </energy>
  </scstep>
  <scstep>
   <time name="dav">    0.62    0.62</time>
   <time name="total">    0.63    0.63</time>
   <energy>
    <i name="e_fr_energy">    -37.27688072 </i>
    <i name="e_wo_entrp">    -37.27688072 </i>
    <i name="e_0_energy">    -37.27688072 </i>
   </energy>
  </scstep>
  <scstep>
   <time name="dav">    0.55    0.55</time>
   <time name="total">    0.59    0.59</time>
   <energy>
    <i name="e_fr_energy">    -37.28752351 </i>
    <i name="e_wo_entrp">    -37.28752351 </i>
    <i name="e_0_energy">    -37.28752351 </i>
   </energy>
  </scstep>
  <scstep>
   <time name="diag">    0.08    0.08</time>
   <time name="diis">    0.21    0.21</time>
   <time name="orth">    0.01    0.01</time>
   <time name="total">    0.43    0.43</time>
   <energy>
    <i name="e_fr_energy">    -44.25572871 </i>
    <i name="e_wo_entrp">    -44.25572871 </i>
    <i name="e_0_energy">    -44.25572871 </i>
   </energy>
  </scstep>
  <scstep>
   <time name="diag">    0.09    0.09</time>
   <time name="diis">    0.19    0.19</time>
   <time name="orth">    0.01    0.01</time>
   <time name="total">    0.41    0.41</time>
   <energy>
    <i name="e_fr_energy">    -32.31466007 </i>
    <i name="e_wo_entrp">    -32.31466007 </i>
    <i name="e_0_energy">    -32.31466007 </i>
   </energy>
  </scstep>
  <scstep>
   <time name="diag">    0.09    0.09</time>
   <time name="diis">    0.20    0.20</time>
   <time name="orth">    0.01    0.01</time>
   <time name="total">    0.42    0.43</time>
   <energy>
    <i name="e_fr_energy">    -32.02283143 </i>
    <i name="e_wo_entrp">    -32.02283143 </i>
    <i name="e_0_energy">    -32.02283143 </i>
   </energy>
  </scstep>
  <scstep>
   <time name="diag">    0.08    0.09</time>
   <time name="diis">    0.19    0.20</time>
   <time name="orth">    0.01    0.01</time>
   <time name="total">    0.42    0.42</time>
   <energy>
    <i name="e_fr_energy">    -31.22726335 </i>
    <i name="e_wo_entrp">    -31.22726335 </i>
    <i name="e_0_energy">    -31.22726335 </i>
   </energy>
  </scstep>
  <scstep>
   <time name="diag">    0.08    0.09</time>
   <time name="diis">    0.20    0.20</time>
   <time name="orth">    0.01    0.01</time>
   <time name="total">    0.42    0.42</time>
   <energy>
    <i name="e_fr_energy">    -31.20835238 </i>
    <i name="e_wo_entrp">    -31.20835238 </i>
    <i name="e_0_energy">    -31.20835238 </i>
   </energy>
  </scstep>
  <scstep>
   <time name="diag">    0.09    0.09</time>
   <time name="diis">    0.19    0.19</time>
   <time name="orth">    0.01    0.01</time>
   <time name="total">    0.41    0.41</time>
   <energy>
    <i name="e_fr_energy">    -31.23611573 </i>
    <i name="e_wo_entrp">    -31.23611573 </i>
    <i name="e_0_energy">    -31.23611573 </i>
   </energy>
  </scstep>
  <scstep>
   <time name="diag">    0.08    0.09</time>
   <time name="diis">    0.19    0.19</time>
   <time name="orth">    0.01    0.01</time>
   <time name="total">    0.41    0.41</time>
   <energy>
    <i name="e_fr_energy">    -31.23543260 </i>
    <i name="e_wo_entrp">    -31.23543260 </i>
    <i name="e_0_energy">    -31.23543260 </i>
   </energy>
  </scstep>
  <scstep>
   <time name="diag">    0.08    0.09</time>
   <time name="diis">    0.18    0.18</time>
   <time name="orth">    0.01    0.01</time>
   <time name="total">    0.40    0.40</time>
   <energy>
    <i name="e_fr_energy">    -31.23739525 </i>
    <i name="e_wo_entrp">    -31.23739525 </i>
    <i name="e_0_energy">    -31.23739525 </i>
   </energy>
  </scstep>
  <scstep>
   <time name="diag">    0.08    0.09</time>
   <time name="diis">    0.13    0.13</time>
   <time name="orth">    0.01    0.01</time>
   <time name="total">    0.33    0.33</time>
   <energy>
    <i name="alphaZ">    258.73982588 </i>
    <i name="ewald">  -3119.40737581 </i>
    <i name="hartreedc">  -1298.75505221 </i>
    <i name="XCdc">    190.24622641 </i>
    <i name="pawpsdc">   3390.65768619 </i>
    <i name="pawaedc">  -3477.55399867 </i>
    <i name="eentropy">      0.00000000 </i>
    <i name="bandstr">   -577.11343788 </i>
    <i name="atom">   4601.94837920 </i>
    <i name="e_fr_energy">    -31.23774688 </i>
    <i name="e_wo_entrp">    -31.23774688 </i>
    <i name="e_0_energy">    -31.23774688 </i>
   </energy>
  </scstep>
  <structure>
   <crystal>
    <varray name="basis" >
     <v>       4.05000000       0.00000000       0.00000000 </v>
     <v>       0.00000000       4.05000000       0.00000000 </v>
     <v>       0.00000000       0.00000000       4.05000000 </v>
    </varray>
    <i name="volume">     66.43012500 </i>
    <varray name="rec_basis" >
     <v>       0.24691358       0.00000000       0.00000000 </v>
     <v>       0.00000000       0.24691358       0.00000000 </v>
     <v>       0.00000000       0.00000000       0.24691358 </v>
    </varray>
   </crystal>
   <varray name="positions" >
    <v>       0.50000000       0.50000000       0.50000000 </v>
    <v>       0.00000000       0.00000000       0.00000000 </v>
    <v>       0.50000000       0.00000000       0.00000000 </v>
    <v>       0.00000000       0.50000000       0.00000000 </v>
    <v>       0.00000000       0.00000000       0.50000000 </v>
   </varray>
  </structure>
  <varray name="forces" >
   <v>       0.00000000       0.00000000       0.00000000 </v>
   <v>       0.00000000       0.00000000       0.00000000 </v>
   <v>       0.00000000       0.00000000       0.00000000 </v>
   <v>       0.00000000       0.00000000       0.00000000 </v>
   <v>       0.00000000       0.00000000       0.00000000 </v>
  </varray>
  <energy>
   <i name="e_fr_energy">    -31.23774688 </i>
   <i name="e_wo_entrp">    -31.23774688 </i>
   <i name="e_0_energy">      0.00000000 </i>
  </energy>
  <time name="totalsc">    6.91    6.95</time>
  <eigenvalues>
   <array>
    <dimension dim="1">band</dimension>
    <dimension dim="2">kpoint</dimension>
    <dimension dim="3">spin</dimension>
    <field>eigene</field>
    <field>occ</field>
    <set>
     <set comment="spin 1">
      <set comment="kpoint 1">
       <r>  -55.3908    1.0000 </r>
       <r>  -55.3906    1.0000 </r>
       <r>  -55.3906    1.0000 </r>
       <r>  -31.0839    1.0000 </r>
       <r>  -15.5897    1.0000 </r>
       <r>  -14.5785    1.0000 </r>
       <r>  -14.5785    1.0000 </r>
       <r>  -13.0815    1.0000 </r>
       <r>  -13.0815    1.0000 </r>
       <r>  -13.0399    1.0000 </r>
       <r>   -5.0138    1.0000 </r>
       <r>   -5.0138    1.0000 </r>
       <r>   -5.0105    1.0000 </r>
       <r>   -4.0990    1.0000 </r>
       <r>   -4.0990    1.0000 </r>
       <r>   -1.9743    1.0000 </r>
       <r>   -1.4562    1.0000 </r>
       <r>   -1.4562    1.0000 </r>
       <r>    0.5681    1.0000 </r>
       <r>    0.5681    1.0000 </r>
       <r>    0.7547    1.0000 </r>
       <r>    0.8287    1.0000 </r>
       <r>    1.2235    1.0000 </r>
       <r>    1.2235    1.0053 </r>
       <r>    7.3004    0.0000 </r>
       <r>    7.5678    0.0000 </r>
       <r>    7.5679    0.0000 </r>
       <r>    9.6083    0.0000 </r>
      </set>
      <set comment="kpoint 2">
       <r>  -55.3910    1.0000 </r>
       <r>  -55.3907    1.0000 </r>
       <r>  -55.3906    1.0000 </r>
       <r>  -31.0783    1.0000 </r>
       <r>  -15.5652    1.0000 </r>
       <r>  -14.6503    1.0000 </r>
       <r>  -14.5578    1.0000 </r>
       <r>  -13.0820    1.0000 </r>
       <r>  -13.0482    1.0000 </r>
       <r>  -12.8897    1.0000 </r>
       <r>   -5.1015    1.0000 </r>
       <r>   -5.0929    1.0000 </r>
       <r>   -5.0125    1.0000 </r>
       <r>   -4.9835    1.0000 </r>
       <r>   -4.0969    1.0000 </r>
       <r>   -1.9938    1.0000 </r>
       <r>   -1.3749    1.0000 </r>
       <r>   -0.7244    1.0000 </r>
       <r>    0.2663    1.0000 </r>
       <r>    0.3876    1.0000 </r>
       <r>    0.5519    1.0000 </r>
       <r>    0.7638    1.0000 </r>
       <r>    1.1265    1.0000 </r>
       <r>    1.2888    1.0590 </r>
       <r>    8.1173    0.0000 </r>
       <r>    8.1570    0.0000 </r>
       <r>    8.3916    0.0000 </r>
       <r>    9.8310    0.0000 </r>
      </set>
      <set comment="kpoint 3">
       <r>  -55.3913    1.0000 </r>
       <r>  -55.3909    1.0000 </r>
       <r>  -55.3906    1.0000 </r>
       <r>  -31.0727    1.0000 </r>
       <r>  -15.5790    1.0000 </r>
       <r>  -14.6469    1.0000 </r>
       <r>  -14.5366    1.0000 </r>
       <r>  -13.0828    1.0000 </r>
       <r>  -13.0254    1.0000 </r>
       <r>  -12.7592    1.0000 </r>
       <r>   -5.6599    1.0000 </r>
       <r>   -5.1820    1.0000 </r>
       <r>   -5.1671    1.0000 </r>
       <r>   -5.0126    1.0000 </r>
       <r>   -4.0957    1.0000 </r>
       <r>   -1.9084    1.0000 </r>
       <r>   -1.3141    1.0000 </r>
       <r>   -0.5733    1.0000 </r>
       <r>    0.0519    1.0000 </r>
       <r>    0.2768    1.0000 </r>
       <r>    0.6762    1.0000 </r>
       <r>    0.7982    1.0000 </r>
       <r>    0.9620    1.0000 </r>
       <r>    1.1723    1.0822 </r>
       <r>    8.8099    0.0000 </r>
       <r>    8.8466    0.0000 </r>
       <r>    9.8591    0.0000 </r>
       <r>   10.0387    0.0000 </r>
      </set>
      <set comment="kpoint 4">
       <r>  -55.3910    1.0000 </r>
       <r>  -55.3909    1.0000 </r>
       <r>  -55.3908    1.0000 </r>
       <r>  -31.0730    1.0000 </r>
       <r>  -15.4656    1.0000 </r>
       <r>  -14.7232    1.0000 </r>
       <r>  -14.5630    1.0000 </r>
       <r>  -13.0735    1.0000 </r>
       <r>  -12.9758    1.0000 </r>
       <r>  -12.8733    1.0000 </r>
       <r>   -5.2082    1.0000 </r>
       <r>   -5.1891    1.0000 </r>
       <r>   -5.1051    1.0000 </r>
       <r>   -5.0978    1.0000 </r>
       <r>   -4.6862    1.0000 </r>
       <r>   -2.1553    1.0000 </r>
       <r>   -0.9736    1.0000 </r>
       <r>   -0.1830    1.0000 </r>
       <r>   -0.1638    1.0000 </r>
       <r>    0.1702    1.0000 </r>
       <r>    0.4642    1.0000 </r>
       <r>    0.9444    1.0000 </r>
       <r>    1.0560    1.0000 </r>
       <r>    1.7104    0.4871 </r>
       <r>    8.5472    0.0000 </r>
       <r>    8.8023    0.0000 </r>
       <r>    8.8677    0.0000 </r>
       <r>   10.1447    0.0000 </r>
      </set>
      <set comment="kpoint 5">
       <r>  -55.3912    1.0000 </r>
       <r>  -55.3909    1.0000 </r>
       <r>  -55.3907    1.0000 </r>
       <r>  -31.0676    1.0000 </r>
       <r>  -15.3879    1.0000 </r>
       <r>  -14.7531    1.0000 </r>
       <r>  -14.5638    1.0000 </r>
       <r>  -13.0793    1.0000 </r>
       <r>  -12.9404    1.0000 </r>
       <r>  -12.8224    1.0000 </r>
       <r>   -5.7074    1.0000 </r>
       <r>   -5.3111    1.0000 </r>
       <r>   -5.1833    1.0000 </r>
       <r>   -5.1082    1.0000 </r>
       <r>   -4.8254    1.0000 </r>
       <r>   -2.0995    1.0000 </r>
       <r>   -0.7758    1.0000 </r>
       <r>   -0.5616    1.0000 </r>
       <r>    0.0175    1.0000 </r>
       <r>    0.1296    1.0000 </r>
       <r>    0.5948    1.0000 </r>
       <r>    0.8692    1.0000 </r>
       <r>    1.1591    1.0000 </r>
       <r>    1.9352    0.0817 </r>
       <r>    9.1100    0.0000 </r>
       <r>    9.4252    0.0000 </r>
       <r>    9.6739    0.0000 </r>
       <r>   10.4069    0.0000 </r>
      </set>
      <set comment="kpoint 6">
       <r>  -55.3913    1.0000 </r>
       <r>  -55.3912    1.0000 </r>
       <r>  -55.3907    1.0000 </r>
       <r>  -31.0625    1.0000 </r>
       <r>  -15.1149    1.0000 </r>
       <r>  -14.8478    1.0000 </r>
       <r>  -14.6839    1.0000 </r>
       <r>  -13.0584    1.0000 </r>
       <r>  -12.8864    1.0000 </r>
       <r>  -12.8649    1.0000 </r>
       <r>   -5.8753    1.0000 </r>
       <r>   -5.4388    1.0000 </r>
       <r>   -5.3221    1.0000 </r>
       <r>   -5.1969    1.0000 </r>
       <r>   -5.1945    1.0000 </r>
       <r>   -2.0846    1.0000 </r>
       <r>   -0.7122    1.0000 </r>
       <r>   -0.3753    1.0000 </r>
       <r>    0.0961    1.0000 </r>
       <r>    0.1047    1.0000 </r>
       <r>    0.5455    1.0000 </r>
       <r>    0.6576    1.0000 </r>
       <r>    1.4762    1.0000 </r>
       <r>    2.5435   -0.0011 </r>
       <r>    9.2836    0.0000 </r>
       <r>    9.5708    0.0000 </r>
       <r>   10.3005    0.0000 </r>
       <r>   10.3545    0.0000 </r>
      </set>
      <set comment="kpoint 7">
       <r>  -55.3910    1.0000 </r>
       <r>  -55.3910    1.0000 </r>
       <r>  -55.3910    1.0000 </r>
       <r>  -31.0678    1.0000 </r>
       <r>  -15.3397    1.0000 </r>
       <r>  -14.6475    1.0000 </r>
       <r>  -14.6475    1.0000 </r>
       <r>  -13.0610    1.0000 </r>
       <r>  -13.0610    1.0000 </r>
       <r>  -12.8451    1.0000 </r>
       <r>   -5.2314    1.0000 </r>
       <r>   -5.2023    1.0000 </r>
       <r>   -5.2023    1.0000 </r>
       <r>   -5.1703    1.0000 </r>
       <r>   -5.1703    1.0000 </r>
       <r>   -2.8558    1.0000 </r>
       <r>   -0.3619    1.0000 </r>
       <r>   -0.0914    1.0000 </r>
       <r>   -0.0914    1.0000 </r>
       <r>    0.2921    1.0000 </r>
       <r>    0.2921    1.0000 </r>
       <r>    1.1431    1.0000 </r>
       <r>    1.6578    0.9665 </r>
       <r>    1.6578    0.3117 </r>
       <r>    8.8741    0.0000 </r>
       <r>    8.9796    0.0000 </r>
       <r>    8.9837    0.0000 </r>
       <r>   10.2224    0.0000 </r>
      </set>
      <set comment="kpoint 8">
       <r>  -55.3912    1.0000 </r>
       <r>  -55.3909    1.0000 </r>
       <r>  -55.3909    1.0000 </r>
       <r>  -31.0627    1.0000 </r>
       <r>  -15.2084    1.0000 </r>
       <r>  -14.7297    1.0000 </r>
       <r>  -14.5632    1.0000 </r>
       <r>  -13.1554    1.0000 </r>
       <r>  -12.9793    1.0000 </r>
       <r>  -12.8859    1.0000 </r>
       <r>   -5.7333    1.0000 </r>
       <r>   -5.3231    1.0000 </r>
       <r>   -5.2617    1.0000 </r>
       <r>   -5.1947    1.0000 </r>
       <r>   -5.1853    1.0000 </r>
       <r>   -3.0493    1.0000 </r>
       <r>   -0.5019    1.0000 </r>
       <r>   -0.1117    1.0000 </r>
       <r>   -0.0297    1.0000 </r>
       <r>    0.3075    1.0000 </r>
       <r>    0.9071    1.0000 </r>
       <r>    1.2723    1.0000 </r>
       <r>    1.5634    0.9465 </r>
       <r>    2.0241   -0.0017 </r>
       <r>    9.1714    0.0000 </r>
       <r>    9.3484    0.0000 </r>
       <r>    9.4084    0.0000 </r>
       <r>    9.9568    0.0000 </r>
      </set>
      <set comment="kpoint 9">
       <r>  -55.3911    1.0000 </r>
       <r>  -55.3910    1.0000 </r>
       <r>  -55.3909    1.0000 </r>
       <r>  -31.0578    1.0000 </r>
       <r>  -14.9538    1.0000 </r>
       <r>  -14.7311    1.0000 </r>
       <r>  -14.6130    1.0000 </r>
       <r>  -13.1688    1.0000 </r>
       <r>  -13.0441    1.0000 </r>
       <r>  -12.9750    1.0000 </r>
       <r>   -5.8735    1.0000 </r>
       <r>   -5.5352    1.0000 </r>
       <r>   -5.3946    1.0000 </r>
       <r>   -5.2748    1.0000 </r>
       <r>   -5.2714    1.0000 </r>
       <r>   -3.3786    1.0000 </r>
       <r>   -0.4751    1.0000 </r>
       <r>   -0.0943    1.0000 </r>
       <r>   -0.0761    1.0000 </r>
       <r>    0.8988    1.0000 </r>
       <r>    1.0574    1.0000 </r>
       <r>    1.5090    1.0000 </r>
       <r>    1.5871    0.8123 </r>
       <r>    2.5391   -0.0009 </r>
       <r>    8.9371    0.0000 </r>
       <r>    9.2511    0.0000 </r>
       <r>    9.3135    0.0000 </r>
       <r>   10.1647    0.0000 </r>
      </set>
      <set comment="kpoint 10">
       <r>  -55.3912    1.0000 </r>
       <r>  -55.3910    1.0000 </r>
       <r>  -55.3910    1.0000 </r>
       <r>  -31.0530    1.0000 </r>
       <r>  -14.7342    1.0000 </r>
       <r>  -14.5889    1.0000 </r>
       <r>  -14.5889    1.0000 </r>
       <r>  -13.2269    1.0000 </r>
       <r>  -13.2269    1.0000 </r>
       <r>  -13.1389    1.0000 </r>
       <r>   -5.8718    1.0000 </r>
       <r>   -5.8718    1.0000 </r>
       <r>   -5.3632    1.0000 </r>
       <r>   -5.3415    1.0000 </r>
       <r>   -5.3415    1.0000 </r>
       <r>   -3.9377    1.0000 </r>
       <r>   -0.2455    1.0000 </r>
       <r>   -0.1387    1.0000 </r>
       <r>   -0.1387    1.0000 </r>
       <r>    1.4514    1.0000 </r>
       <r>    1.4514    1.0000 </r>
       <r>    1.5655    1.0000 </r>
       <r>    2.5218   -0.2804 </r>
       <r>    2.5218   -0.0001 </r>
       <r>    8.5520    0.0000 </r>
       <r>    8.6508    0.0000 </r>
       <r>    8.6508    0.0000 </r>
       <r>   10.8989    0.0000 </r>
      </set>
     </set>
     <set comment="spin 2">
      <set comment="kpoint 1">
       <r>  -50.9125    1.0000 </r>
       <r>  -50.9124    1.0000 </r>
       <r>  -50.9124    1.0000 </r>
       <r>  -31.0809    1.0000 </r>
       <r>  -15.3243    1.0000 </r>
       <r>  -14.1210    1.0000 </r>
       <r>  -14.1210    1.0000 </r>
       <r>  -13.0634    1.0000 </r>
       <r>  -13.0634    1.0000 </r>
       <r>  -13.0291    1.0000 </r>
       <r>   -1.7590    1.0000 </r>
       <r>   -1.5649    1.0000 </r>
       <r>   -1.5649    1.0000 </r>
       <r>    0.7371    1.0000 </r>
       <r>    0.7371    1.0000 </r>
       <r>    0.9734    1.0000 </r>
       <r>    1.0961    1.0000 </r>
       <r>    1.2915    1.0000 </r>
       <r>    1.2915    1.0000 </r>
       <r>    3.3434    0.0000 </r>
       <r>    3.3814    0.0000 </r>
       <r>    3.3814    0.0000 </r>
       <r>    3.7749    0.0000 </r>
       <r>    3.7749    0.0000 </r>
       <r>    7.5542    0.0000 </r>
       <r>    7.6133    0.0000 </r>
       <r>    7.6133    0.0000 </r>
       <r>    9.8351    0.0000 </r>
      </set>
      <set comment="kpoint 2">
       <r>  -50.9129    1.0000 </r>
       <r>  -50.9124    1.0000 </r>
       <r>  -50.9124    1.0000 </r>
       <r>  -31.0754    1.0000 </r>
       <r>  -15.3058    1.0000 </r>
       <r>  -14.2904    1.0000 </r>
       <r>  -14.0936    1.0000 </r>
       <r>  -13.0693    1.0000 </r>
       <r>  -13.0299    1.0000 </r>
       <r>  -12.8405    1.0000 </r>
       <r>   -2.0826    1.0000 </r>
       <r>   -1.5308    1.0000 </r>
       <r>   -1.5124    1.0000 </r>
       <r>    0.0559    1.0000 </r>
       <r>    0.1956    1.0000 </r>
       <r>    0.6399    1.0000 </r>
       <r>    0.9955    1.0000 </r>
       <r>    1.0141    1.0000 </r>
       <r>    1.1495    1.0000 </r>
       <r>    3.3876    0.0000 </r>
       <r>    3.7174    0.0000 </r>
       <r>    3.8148    0.0000 </r>
       <r>    3.8722    0.0000 </r>
       <r>    4.4908    0.0000 </r>
       <r>    8.2282    0.0000 </r>
       <r>    8.2341    0.0000 </r>
       <r>    8.5891    0.0000 </r>
       <r>    9.8970    0.0000 </r>
      </set>
      <set comment="kpoint 3">
       <r>  -50.9135    1.0000 </r>
       <r>  -50.9125    1.0000 </r>
       <r>  -50.9123    1.0000 </r>
       <r>  -31.0698    1.0000 </r>
       <r>  -15.3135    1.0000 </r>
       <r>  -14.3755    1.0000 </r>
       <r>  -14.0655    1.0000 </r>
       <r>  -13.0759    1.0000 </r>
       <r>  -13.0107    1.0000 </r>
       <r>  -12.6962    1.0000 </r>
       <r>   -2.3646    1.0000 </r>
       <r>   -1.4849    1.0000 </r>
       <r>   -1.4463    1.0000 </r>
       <r>   -0.5668    1.0000 </r>
       <r>   -0.1812    1.0000 </r>
       <r>    0.4655    1.0000 </r>
       <r>    0.7812    1.0000 </r>
       <r>    0.8011    1.0000 </r>
       <r>    1.0363    1.0000 </r>
       <r>    3.4105    0.0000 </r>
       <r>    3.7504    0.0000 </r>
       <r>    4.2030    0.0000 </r>
       <r>    4.2178    0.0000 </r>
       <r>    4.9487    0.0000 </r>
       <r>    8.9074    0.0000 </r>
       <r>    8.9376    0.0000 </r>
       <r>    9.8736    0.0000 </r>
       <r>   10.1117    0.0000 </r>
      </set>
      <set comment="kpoint 4">
       <r>  -50.9129    1.0000 </r>
       <r>  -50.9129    1.0000 </r>
       <r>  -50.9125    1.0000 </r>
       <r>  -31.0701    1.0000 </r>
       <r>  -15.2139    1.0000 </r>
       <r>  -14.3988    1.0000 </r>
       <r>  -14.1425    1.0000 </r>
       <r>  -13.0614    1.0000 </r>
       <r>  -12.9180    1.0000 </r>
       <r>  -12.8401    1.0000 </r>
       <r>   -2.3765    1.0000 </r>
       <r>   -1.5614    1.0000 </r>
       <r>   -1.4298    1.0000 </r>
       <r>   -0.6955    1.0000 </r>
       <r>    0.0846    1.0000 </r>
       <r>    0.1755    1.0000 </r>
       <r>    0.8875    1.0000 </r>
       <r>    0.9145    1.0000 </r>
       <r>    1.3669    1.0165 </r>
       <r>    3.7711    0.0000 </r>
       <r>    3.8675    0.0000 </r>
       <r>    3.9700    0.0000 </r>
       <r>    4.1125    0.0000 </r>
       <r>    5.0396    0.0000 </r>
       <r>    8.6427    0.0000 </r>
       <r>    8.9304    0.0000 </r>
       <r>    8.9971    0.0000 </r>
       <r>   10.3421    0.0000 </r>
      </set>
      <set comment="kpoint 5">
       <r>  -50.9134    1.0000 </r>
       <r>  -50.9128    1.0000 </r>
       <r>  -50.9124    1.0000 </r>
       <r>  -31.0648    1.0000 </r>
       <r>  -15.1275    1.0000 </r>
       <r>  -14.5011    1.0000 </r>
       <r>  -14.1486    1.0000 </r>
       <r>  -13.0719    1.0000 </r>
       <r>  -12.9020    1.0000 </r>
       <r>  -12.7664    1.0000 </r>
       <r>   -2.6527    1.0000 </r>
       <r>   -1.5895    1.0000 </r>
       <r>   -1.3136    1.0000 </r>
       <r>   -1.2364    1.0000 </r>
       <r>   -0.2873    1.0000 </r>
       <r>    0.1728    1.0000 </r>
       <r>    0.6326    1.0000 </r>
       <r>    0.8417    1.0000 </r>
       <r>    1.4573    1.0138 </r>
       <r>    3.8296    0.0000 </r>
       <r>    4.1164    0.0000 </r>
       <r>    4.2144    0.0000 </r>
       <r>    4.2711    0.0000 </r>
       <r>    5.5678    0.0000 </r>
       <r>    9.2099    0.0000 </r>
       <r>    9.5332    0.0000 </r>
       <r>    9.7701    0.0000 </r>
       <r>   10.4924    0.0000 </r>
      </set>
      <set comment="kpoint 6">
       <r>  -50.9134    1.0000 </r>
       <r>  -50.9134    1.0000 </r>
       <r>  -50.9124    1.0000 </r>
       <r>  -31.0597    1.0000 </r>
       <r>  -14.8493    1.0000 </r>
       <r>  -14.6169    1.0000 </r>
       <r>  -14.3323    1.0000 </r>
       <r>  -13.0540    1.0000 </r>
       <r>  -12.8294    1.0000 </r>
       <r>  -12.8153    1.0000 </r>
       <r>   -2.9755    1.0000 </r>
       <r>   -1.7000    1.0000 </r>
       <r>   -1.6795    1.0000 </r>
       <r>   -1.0751    1.0000 </r>
       <r>   -0.3493    1.0000 </r>
       <r>   -0.2541    1.0000 </r>
       <r>    0.6782    1.0000 </r>
       <r>    0.7302    1.0000 </r>
       <r>    1.8395    0.1791 </r>
       <r>    4.1660    0.0000 </r>
       <r>    4.2198    0.0000 </r>
       <r>    4.2498    0.0000 </r>
       <r>    4.4080    0.0000 </r>
       <r>    6.2298    0.0000 </r>
       <r>    9.3445    0.0000 </r>
       <r>    9.6667    0.0000 </r>
       <r>   10.4186    0.0000 </r>
       <r>   10.4676    0.0000 </r>
      </set>
      <set comment="kpoint 7">
       <r>  -50.9129    1.0000 </r>
       <r>  -50.9129    1.0000 </r>
       <r>  -50.9129    1.0000 </r>
       <r>  -31.0650    1.0000 </r>
       <r>  -15.0987    1.0000 </r>
       <r>  -14.3046    1.0000 </r>
       <r>  -14.3046    1.0000 </r>
       <r>  -13.0207    1.0000 </r>
       <r>  -13.0207    1.0000 </r>
       <r>  -12.8116    1.0000 </r>
       <r>   -2.6402    1.0000 </r>
       <r>   -1.5215    1.0000 </r>
       <r>   -1.5215    1.0000 </r>
       <r>   -0.7961    1.0000 </r>
       <r>   -0.4694    1.0000 </r>
       <r>   -0.4694    1.0000 </r>
       <r>    1.1640    1.0014 </r>
       <r>    1.1640    1.0019 </r>
       <r>    1.4958    1.0059 </r>
       <r>    3.9770    0.0000 </r>
       <r>    4.0485    0.0000 </r>
       <r>    4.0485    0.0000 </r>
       <r>    5.0229    0.0000 </r>
       <r>    5.0229    0.0000 </r>
       <r>    9.0088    0.0000 </r>
       <r>    9.0742    0.0000 </r>
       <r>    9.0804    0.0000 </r>
       <r>   10.3312    0.0000 </r>
      </set>
      <set comment="kpoint 8">
       <r>  -50.9134    1.0000 </r>
       <r>  -50.9129    1.0000 </r>
       <r>  -50.9128    1.0000 </r>
       <r>  -31.0599    1.0000 </r>
       <r>  -14.9576    1.0000 </r>
       <r>  -14.4754    1.0000 </r>
       <r>  -14.1928    1.0000 </r>
       <r>  -13.1418    1.0000 </r>
       <r>  -12.9344    1.0000 </r>
       <r>  -12.8450    1.0000 </r>
       <r>   -2.9228    1.0000 </r>
       <r>   -1.5829    1.0000 </r>
       <r>   -1.4667    1.0000 </r>
       <r>   -1.2260    1.0000 </r>
       <r>   -0.8154    1.0000 </r>
       <r>   -0.4653    1.0000 </r>
       <r>    1.1777    1.0081 </r>
       <r>    1.2551    1.0082 </r>
       <r>    1.5778    0.8356 </r>
       <r>    4.0578    0.0000 </r>
       <r>    4.2822    0.0000 </r>
       <r>    4.3141    0.0000 </r>
       <r>    4.9896    0.0000 </r>
       <r>    5.7055    0.0000 </r>
       <r>    9.2850    0.0000 </r>
       <r>    9.4746    0.0000 </r>
       <r>    9.4973    0.0000 </r>
       <r>   10.0388    0.0000 </r>
      </set>
      <set comment="kpoint 9">
       <r>  -50.9133    1.0000 </r>
       <r>  -50.9132    1.0000 </r>
       <r>  -50.9128    1.0000 </r>
       <r>  -31.0550    1.0000 </r>
       <r>  -14.7023    1.0000 </r>
       <r>  -14.4847    1.0000 </r>
       <r>  -14.2911    1.0000 </r>
       <r>  -13.1584    1.0000 </r>
       <r>  -13.0004    1.0000 </r>
       <r>  -12.9351    1.0000 </r>
       <r>   -3.2509    1.0000 </r>
       <r>   -1.6693    1.0000 </r>
       <r>   -1.4541    1.0000 </r>
       <r>   -1.4336    1.0000 </r>
       <r>   -0.8351    1.0000 </r>
       <r>   -0.8242    1.0000 </r>
       <r>    1.3563    1.0178 </r>
       <r>    1.3933    1.0162 </r>
       <r>    1.8712    0.0348 </r>
       <r>    4.3236    0.0000 </r>
       <r>    4.3408    0.0000 </r>
       <r>    4.4552    0.0000 </r>
       <r>    5.2714    0.0000 </r>
       <r>    6.2239    0.0000 </r>
       <r>    9.0389    0.0000 </r>
       <r>    9.3665    0.0000 </r>
       <r>    9.4406    0.0000 </r>
       <r>   10.2242    0.0000 </r>
      </set>
      <set comment="kpoint 10">
       <r>  -50.9133    1.0000 </r>
       <r>  -50.9132    1.0000 </r>
       <r>  -50.9132    1.0000 </r>
       <r>  -31.0503    1.0000 </r>
       <r>  -14.4847    1.0000 </r>
       <r>  -14.3139    1.0000 </r>
       <r>  -14.3139    1.0000 </r>
       <r>  -13.2096    1.0000 </r>
       <r>  -13.2096    1.0000 </r>
       <r>  -13.1112    1.0000 </r>
       <r>   -3.5966    1.0000 </r>
       <r>   -1.6576    1.0000 </r>
       <r>   -1.6576    1.0000 </r>
       <r>   -1.2225    1.0000 </r>
       <r>   -1.1029    1.0000 </r>
       <r>   -1.1029    1.0000 </r>
       <r>    1.8241    0.4905 </r>
       <r>    1.8241    0.4570 </r>
       <r>    1.9316   -0.0320 </r>
       <r>    4.4931    0.0000 </r>
       <r>    4.5077    0.0000 </r>
       <r>    4.5077    0.0000 </r>
       <r>    6.2103    0.0000 </r>
       <r>    6.2103    0.0000 </r>
       <r>    8.6590    0.0000 </r>
       <r>    8.7531    0.0000 </r>
       <r>    8.7544    0.0000 </r>
       <r>   10.9036    0.0000 </r>
      </set>
     </set>
    </set>
   </array>
  </eigenvalues>
  <separator name="orbital magnetization" >
   <v name="MAGDIPOLOUT">      0.00000000      0.00000000      0.00000000</v>
  </separator>
 </calculation>
 <structure name="finalpos" >
  <crystal>
   <varray name="basis" >
    <v>       4.05000000       0.00000000       0.00000000 </v>
    <v>       0.00000000       4.05000000       0.00000000 </v>
    <v>       0.00000000       0.00000000       4.05000000 </v>
   </varray>
   <i name="volume">     66.43012500 </i>
   <varray name="rec_basis" >
    <v>       0.24691358       0.00000000       0.00000000 </v>
    <v>       0.00000000       0.24691358       0.00000000 </v>
    <v>       0.00000000       0.00000000       0.24691358 </v>
   </varray>
  </crystal>
  <varray name="positions" >
   <v>       0.50000000       0.50000000       0.50000000 </v>
   <v>       0.00000000       0.00000000       0.00000000 </v>
   <v>       0.50000000       0.00000000       0.00000000 </v>
   <v>       0.00000000       0.50000000       0.00000000 </v>
   <v>       0.00000000       0.00000000       0.50000000 </v>
  </varray>
 </structure>
</modeling>
