unknown system                          
           1
     4.050000    0.000000    0.000000
     0.000000    4.050000    0.000000
     0.000000    0.000000    4.050000
   Sr   Fe   O 
   1   1   3
Direct configuration=     1
   0.50000000  0.50000000  0.50000000
   0.00000000  0.00000000  0.00000000
   0.50000000  0.00000000  0.00000000
   0.00000000  0.50000000  0.00000000
   0.00000000  0.00000000  0.50000000
