  38  38   0   0
  0.1534737E+03  0.1800000E-08  0.1800000E-08  0.1800000E-08  0.5000000E-16
  1.000000000000000E-004
  CAR 
 Pt cube particle                        
      1.66513907    -13.46167923  301     -4.18774865      1.00000000
    -13.462  0.0000E+00  0.0000E+00
    -13.411  0.0000E+00  0.0000E+00
    -13.361  0.0000E+00  0.0000E+00
    -13.310  0.0000E+00  0.0000E+00
    -13.260  0.0000E+00  0.0000E+00
    -13.210  0.0000E+00  0.0000E+00
    -13.159  0.0000E+00  0.0000E+00
    -13.109 -0.1623E-29 -0.8181E-31
    -13.058 -0.9223E-28 -0.4733E-29
    -13.008 -0.4682E-26 -0.2408E-27
    -12.957 -0.2090E-24 -0.1078E-25
    -12.907 -0.8206E-23 -0.4245E-24
    -12.857 -0.2832E-21 -0.1470E-22
    -12.806 -0.8591E-20 -0.4479E-21
    -12.756 -0.2290E-18 -0.1200E-19
    -12.705 -0.5366E-17 -0.2826E-18
    -12.655 -0.1104E-15 -0.5851E-17
    -12.604 -0.1930E-14 -0.1032E-15
    -12.554 -0.3064E-13 -0.1648E-14
    -12.504 -0.4252E-12 -0.2309E-13
    -12.453 -0.5176E-11 -0.2841E-12
    -12.403 -0.5522E-10 -0.3068E-11
    -12.352 -0.5158E-09 -0.2908E-10
    -12.302 -0.4215E-08 -0.2416E-09
    -12.252 -0.3011E-07 -0.1760E-08
    -12.201 -0.1876E-06 -0.1122E-07
    -12.151 -0.1019E-05 -0.6259E-07
    -12.100 -0.4807E-05 -0.3050E-06
    -12.050 -0.1964E-04 -0.1295E-05
    -11.999 -0.6918E-04 -0.4784E-05
    -11.949 -0.2086E-03 -0.1530E-04
    -11.899 -0.5320E-03 -0.4213E-04
    -11.848 -0.1125E-02 -0.9886E-04
    -11.798 -0.1890E-02 -0.1942E-03
    -11.747 -0.2238E-02 -0.3070E-03
    -11.697 -0.8663E-03 -0.3507E-03
    -11.646  0.3916E-02 -0.1532E-03
    -11.596  0.1303E-01  0.5036E-03
    -11.546  0.2514E-01  0.1771E-02
    -11.495  0.3634E-01  0.3604E-02
    -11.445  0.4182E-01  0.5713E-02
    -11.394  0.3898E-01  0.7678E-02
    -11.344  0.2918E-01  0.9149E-02
    -11.294  0.1683E-01  0.9998E-02
    -11.243  0.6426E-02  0.1032E-01
    -11.193  0.1796E-03  0.1033E-01
    -11.142 -0.2320E-02  0.1021E-01
    -11.092 -0.2863E-02  0.1007E-01
    -11.041 -0.3254E-02  0.9905E-02
    -10.991 -0.4514E-02  0.9678E-02
    -10.941 -0.6358E-02  0.9357E-02
    -10.890 -0.6568E-02  0.9026E-02
    -10.840 -0.7505E-03  0.8988E-02
    -10.789  0.1613E-01  0.9801E-02
    -10.739  0.4584E-01  0.1211E-01
    -10.688  0.8277E-01  0.1629E-01
    -10.638  0.1140E+00  0.2204E-01
    -10.588  0.1258E+00  0.2838E-01
    -10.537  0.1124E+00  0.3405E-01
    -10.487  0.8013E-01  0.3809E-01
    -10.436  0.4295E-01  0.4025E-01
    -10.386  0.1310E-01  0.4091E-01
    -10.335 -0.4641E-02  0.4068E-01
    -10.285 -0.1223E-01  0.4006E-01
    -10.235 -0.1319E-01  0.3940E-01
    -10.184 -0.8128E-02  0.3899E-01
    -10.134  0.5912E-02  0.3928E-01
    -10.083  0.3183E-01  0.4089E-01
    -10.033  0.6733E-01  0.4428E-01
     -9.983  0.1029E+00  0.4947E-01
     -9.932  0.1261E+00  0.5583E-01
     -9.882  0.1305E+00  0.6241E-01
     -9.831  0.1222E+00  0.6857E-01
     -9.781  0.1172E+00  0.7448E-01
     -9.730  0.1306E+00  0.8107E-01
     -9.680  0.1648E+00  0.8938E-01
     -9.630  0.2056E+00  0.9975E-01
     -9.579  0.2302E+00  0.1114E+00
     -9.529  0.2232E+00  0.1226E+00
     -9.478  0.1883E+00  0.1321E+00
     -9.428  0.1473E+00  0.1395E+00
     -9.377  0.1280E+00  0.1460E+00
     -9.327  0.1494E+00  0.1535E+00
     -9.277  0.2134E+00  0.1643E+00
     -9.226  0.3022E+00  0.1795E+00
     -9.176  0.3844E+00  0.1989E+00
     -9.125  0.4293E+00  0.2205E+00
     -9.075  0.4239E+00  0.2419E+00
     -9.024  0.3831E+00  0.2612E+00
     -8.974  0.3407E+00  0.2784E+00
     -8.924  0.3290E+00  0.2950E+00
     -8.873  0.3569E+00  0.3130E+00
     -8.823  0.4037E+00  0.3334E+00
     -8.772  0.4322E+00  0.3552E+00
     -8.722  0.4141E+00  0.3760E+00
     -8.672  0.3484E+00  0.3936E+00
     -8.621  0.2598E+00  0.4067E+00
     -8.571  0.1783E+00  0.4157E+00
     -8.520  0.1218E+00  0.4218E+00
     -8.470  0.9171E-01  0.4265E+00
     -8.419  0.8181E-01  0.4306E+00
     -8.369  0.8658E-01  0.4349E+00
     -8.319  0.1017E+00  0.4401E+00
     -8.268  0.1213E+00  0.4462E+00
     -8.218  0.1384E+00  0.4532E+00
     -8.167  0.1496E+00  0.4607E+00
     -8.117  0.1593E+00  0.4687E+00
     -8.066  0.1784E+00  0.4777E+00
     -8.016  0.2193E+00  0.4888E+00
     -7.966  0.2885E+00  0.5033E+00
     -7.915  0.3822E+00  0.5226E+00
     -7.865  0.4830E+00  0.5470E+00
     -7.814  0.5646E+00  0.5754E+00
     -7.764  0.6030E+00  0.6058E+00
     -7.713  0.5895E+00  0.6356E+00
     -7.663  0.5353E+00  0.6626E+00
     -7.613  0.4609E+00  0.6858E+00
     -7.562  0.3832E+00  0.7051E+00
     -7.512  0.3094E+00  0.7207E+00
     -7.461  0.2432E+00  0.7330E+00
     -7.411  0.1908E+00  0.7426E+00
     -7.361  0.1586E+00  0.7506E+00
     -7.310  0.1487E+00  0.7581E+00
     -7.260  0.1571E+00  0.7660E+00
     -7.209  0.1760E+00  0.7749E+00
     -7.159  0.1988E+00  0.7849E+00
     -7.108  0.2224E+00  0.7961E+00
     -7.058  0.2491E+00  0.8087E+00
     -7.008  0.2827E+00  0.8230E+00
     -6.957  0.3202E+00  0.8391E+00
     -6.907  0.3476E+00  0.8566E+00
     -6.856  0.3470E+00  0.8741E+00
     -6.806  0.3119E+00  0.8899E+00
     -6.755  0.2547E+00  0.9027E+00
     -6.705  0.2003E+00  0.9128E+00
     -6.655  0.1742E+00  0.9216E+00
     -6.604  0.1926E+00  0.9313E+00
     -6.554  0.2567E+00  0.9442E+00
     -6.503  0.3501E+00  0.9619E+00
     -6.453  0.4406E+00  0.9841E+00
     -6.402  0.4938E+00  0.1009E+01
     -6.352  0.4940E+00  0.1034E+01
     -6.302  0.4573E+00  0.1057E+01
     -6.251  0.4222E+00  0.1078E+01
     -6.201  0.4198E+00  0.1099E+01
     -6.150  0.4470E+00  0.1122E+01
     -6.100  0.4667E+00  0.1146E+01
     -6.050  0.4378E+00  0.1168E+01
     -5.999  0.3479E+00  0.1185E+01
     -5.949  0.2211E+00  0.1196E+01
     -5.898  0.9937E-01  0.1201E+01
     -5.848  0.1522E-01  0.1202E+01
     -5.797 -0.2019E-01  0.1201E+01
     -5.747 -0.1276E-01  0.1200E+01
     -5.697  0.2577E-01  0.1202E+01
     -5.646  0.8637E-01  0.1206E+01
     -5.596  0.1662E+00  0.1214E+01
     -5.545  0.2670E+00  0.1228E+01
     -5.495  0.3872E+00  0.1247E+01
     -5.444  0.5112E+00  0.1273E+01
     -5.394  0.6052E+00  0.1304E+01
     -5.344  0.6300E+00  0.1335E+01
     -5.293  0.5658E+00  0.1364E+01
     -5.243  0.4322E+00  0.1386E+01
     -5.192  0.2860E+00  0.1400E+01
     -5.142  0.1951E+00  0.1410E+01
     -5.092  0.2038E+00  0.1420E+01
     -5.041  0.3087E+00  0.1436E+01
     -4.991  0.4591E+00  0.1459E+01
     -4.940  0.5825E+00  0.1488E+01
     -4.890  0.6236E+00  0.1520E+01
     -4.839  0.5743E+00  0.1549E+01
     -4.789  0.4779E+00  0.1573E+01
     -4.739  0.4046E+00  0.1593E+01
     -4.688  0.4122E+00  0.1614E+01
     -4.638  0.5140E+00  0.1640E+01
     -4.587  0.6699E+00  0.1674E+01
     -4.537  0.8064E+00  0.1714E+01
     -4.486  0.8551E+00  0.1758E+01
     -4.436  0.7895E+00  0.1797E+01
     -4.386  0.6378E+00  0.1830E+01
     -4.335  0.4653E+00  0.1853E+01
     -4.285  0.3385E+00  0.1870E+01
     -4.234  0.2942E+00  0.1885E+01
     -4.184  0.3265E+00  0.1901E+01
     -4.133  0.3955E+00  0.1921E+01
     -4.083  0.4497E+00  0.1944E+01
     -4.033  0.4525E+00  0.1967E+01
     -3.982  0.3995E+00  0.1987E+01
     -3.932  0.3165E+00  0.2003E+01
     -3.881  0.2396E+00  0.2015E+01
     -3.831  0.1926E+00  0.2025E+01
     -3.781  0.1768E+00  0.2034E+01
     -3.730  0.1768E+00  0.2043E+01
     -3.680  0.1736E+00  0.2051E+01
     -3.629  0.1550E+00  0.2059E+01
     -3.579  0.1200E+00  0.2065E+01
     -3.528  0.7674E-01  0.2069E+01
     -3.478  0.3698E-01  0.2071E+01
     -3.428  0.9177E-02  0.2071E+01
     -3.377 -0.4746E-02  0.2071E+01
     -3.327 -0.8302E-02  0.2071E+01
     -3.276 -0.6733E-02  0.2070E+01
     -3.226 -0.4001E-02  0.2070E+01
     -3.175 -0.1916E-02  0.2070E+01
     -3.125 -0.7778E-03  0.2070E+01
     -3.075 -0.3147E-03  0.2070E+01
     -3.024 -0.2539E-03  0.2070E+01
     -2.974 -0.5032E-03  0.2070E+01
     -2.923 -0.1121E-02  0.2070E+01
     -2.873 -0.2170E-02  0.2070E+01
     -2.822 -0.3485E-02  0.2070E+01
     -2.772 -0.4452E-02  0.2069E+01
     -2.722 -0.3997E-02  0.2069E+01
     -2.671 -0.7963E-03  0.2069E+01
     -2.621  0.6822E-02  0.2069E+01
     -2.570  0.2190E-01  0.2071E+01
     -2.520  0.5012E-01  0.2073E+01
     -2.470  0.9881E-01  0.2078E+01
     -2.419  0.1716E+00  0.2087E+01
     -2.369  0.2608E+00  0.2100E+01
     -2.318  0.3445E+00  0.2117E+01
     -2.268  0.3933E+00  0.2137E+01
     -2.217  0.3859E+00  0.2157E+01
     -2.167  0.3220E+00  0.2173E+01
     -2.117  0.2237E+00  0.2184E+01
     -2.066  0.1229E+00  0.2190E+01
     -2.016  0.4555E-01  0.2193E+01
     -1.965  0.1076E-02  0.2193E+01
     -1.915 -0.1569E-01  0.2192E+01
     -1.864 -0.1651E-01  0.2191E+01
     -1.814 -0.1185E-01  0.2190E+01
     -1.764 -0.7483E-02  0.2190E+01
     -1.713 -0.4807E-02  0.2190E+01
     -1.663 -0.2518E-02  0.2190E+01
     -1.612  0.1734E-02  0.2190E+01
     -1.562  0.9775E-02  0.2190E+01
     -1.511  0.2131E-01  0.2191E+01
     -1.461  0.3311E-01  0.2193E+01
     -1.411  0.4020E-01  0.2195E+01
     -1.360  0.3871E-01  0.2197E+01
     -1.310  0.2864E-01  0.2198E+01
     -1.259  0.1432E-01  0.2199E+01
     -1.209  0.2856E-02  0.2199E+01
     -1.159  0.1652E-02  0.2199E+01
     -1.108  0.1590E-01  0.2200E+01
     -1.058  0.4550E-01  0.2202E+01
     -1.007  0.8258E-01  0.2207E+01
     -0.957  0.1128E+00  0.2212E+01
     -0.906  0.1221E+00  0.2218E+01
     -0.856  0.1060E+00  0.2224E+01
     -0.806  0.7306E-01  0.2227E+01
     -0.755  0.4018E-01  0.2230E+01
     -0.705  0.2265E-01  0.2231E+01
     -0.654  0.2660E-01  0.2232E+01
     -0.604  0.4819E-01  0.2234E+01
     -0.553  0.7837E-01  0.2238E+01
     -0.503  0.1086E+00  0.2244E+01
     -0.453  0.1331E+00  0.2251E+01
     -0.402  0.1475E+00  0.2258E+01
     -0.352  0.1471E+00  0.2265E+01
     -0.301  0.1290E+00  0.2272E+01
     -0.251  0.9625E-01  0.2277E+01
     -0.201  0.5785E-01  0.2280E+01
     -0.150  0.2470E-01  0.2281E+01
     -0.100  0.3459E-02  0.2281E+01
     -0.049 -0.5722E-02  0.2281E+01
      0.001 -0.6981E-02  0.2280E+01
      0.052 -0.4994E-02  0.2280E+01
      0.102 -0.2717E-02  0.2280E+01
      0.152 -0.1205E-02  0.2280E+01
      0.203 -0.4482E-03  0.2280E+01
      0.253 -0.1421E-03  0.2280E+01
      0.304 -0.3875E-04  0.2280E+01
      0.354 -0.9138E-05  0.2280E+01
      0.405 -0.1871E-05  0.2280E+01
      0.455 -0.3336E-06  0.2280E+01
      0.505 -0.5192E-07  0.2280E+01
      0.556 -0.7062E-08  0.2280E+01
      0.606 -0.8408E-09  0.2280E+01
      0.657 -0.8769E-10  0.2280E+01
      0.707 -0.8020E-11  0.2280E+01
      0.758 -0.6435E-12  0.2280E+01
      0.808 -0.4536E-13  0.2280E+01
      0.858 -0.2774E-14  0.2280E+01
      0.909 -0.1761E-15  0.2280E+01
      0.959  0.0000E+00  0.2280E+01
      1.010  0.0000E+00  0.2280E+01
      1.060  0.0000E+00  0.2280E+01
      1.110  0.0000E+00  0.2280E+01
      1.161  0.0000E+00  0.2280E+01
      1.211  0.0000E+00  0.2280E+01
      1.262  0.0000E+00  0.2280E+01
      1.312  0.0000E+00  0.2280E+01
      1.363  0.0000E+00  0.2280E+01
      1.413  0.0000E+00  0.2280E+01
      1.463  0.0000E+00  0.2280E+01
      1.514  0.0000E+00  0.2280E+01
      1.564  0.0000E+00  0.2280E+01
      1.615  0.0000E+00  0.2280E+01
      1.665  0.0000E+00  0.2280E+01
