   38   38  200    1
  0.1534737E+03  0.1800000E-08  0.1800000E-08  0.1800000E-08  0.5000000E-16
  1.000000000000000E-004
  CAR 
 Pt cube particle                        
    380      1    228
 
  0.0000000E+00  0.0000000E+00  0.0000000E+00  0.1000000E+01
    1      -11.461679   1.000000
    2      -10.614689   1.000000
    3      -10.614410   1.000000
    4      -10.614335   1.000000
    5       -9.944788   1.000000
    6       -9.944718   1.000000
    7       -9.943865   1.000000
    8       -9.788538   1.000000
    9       -9.657931   1.000000
   10       -9.588191   1.000000
   11       -9.588161   1.000000
   12       -9.587563   1.000000
   13       -9.553892   1.000000
   14       -9.550377   1.000000
   15       -9.349479   1.000000
   16       -9.348415   1.000000
   17       -9.198556   1.000000
   18       -9.198525   1.000000
   19       -9.198054   1.000000
   20       -9.162615   1.000000
   21       -9.140755   1.000000
   22       -9.140450   1.000000
   23       -9.140391   1.000000
   24       -9.110403   1.000000
   25       -9.110353   1.000000
   26       -9.109912   1.000000
   27       -8.993866   1.000000
   28       -8.993414   1.000000
   29       -8.993386   1.000000
   30       -8.889602   1.000000
   31       -8.888908   1.000000
   32       -8.786266   1.000000
   33       -8.786214   1.000000
   34       -8.786211   1.000000
   35       -8.775728   1.000000
   36       -8.775711   1.000000
   37       -8.774268   1.000000
   38       -8.756134   1.000000
   39       -8.754879   1.000000
   40       -8.754866   1.000000
   41       -8.638492   1.000000
   42       -8.521811   1.000000
   43       -8.519870   1.000000
   44       -8.355178   1.000000
   45       -8.217633   1.000000
   46       -8.217591   1.000000
   47       -8.216449   1.000000
   48       -8.036601   1.000000
   49       -8.035721   1.000000
   50       -8.035703   1.000000
   51       -7.926000   1.000000
   52       -7.925240   1.000000
   53       -7.863284   1.000000
   54       -7.863252   1.000000
   55       -7.862925   1.000000
   56       -7.839644   1.000000
   57       -7.837224   1.000000
   58       -7.837167   1.000000
   59       -7.759779   1.000000
   60       -7.754652   1.000000
   61       -7.743263   1.000000
   62       -7.743197   1.000000
   63       -7.739385   1.000000
   64       -7.738599   1.000000
   65       -7.738121   1.000000
   66       -7.738100   1.000000
   67       -7.728811   1.000000
   68       -7.575133   1.000000
   69       -7.575094   1.000000
   70       -7.570863   1.000000
   71       -7.561180   1.000000
   72       -7.559158   1.000000
   73       -7.559135   1.000000
   74       -7.488745   1.000000
   75       -7.329017   1.000000
   76       -7.320062   1.000000
   77       -7.319901   1.000000
   78       -7.153502   1.000000
   79       -7.152508   1.000000
   80       -7.098696   1.000000
   81       -7.098644   1.000000
   82       -7.097031   1.000000
   83       -6.921908   1.000000
   84       -6.921815   1.000000
   85       -6.916732   1.000000
   86       -6.892051   1.000000
   87       -6.887876   1.000000
   88       -6.876663   1.000000
   89       -6.876625   1.000000
   90       -6.874152   1.000000
   91       -6.701890   1.000000
   92       -6.699900   1.000000
   93       -6.699833   1.000000
   94       -6.521088   1.000000
   95       -6.518497   1.000000
   96       -6.518445   1.000000
   97       -6.459030   1.000000
   98       -6.459003   1.000000
   99       -6.457721   1.000000
  100       -6.401811   1.000000
  101       -6.401607   1.000000
  102       -6.401557   1.000000
  103       -6.361129   1.000000
  104       -6.361101   1.000000
  105       -6.360058   1.000000
  106       -6.350118   1.000000
  107       -6.349841   1.000000
  108       -6.314606   1.000000
  109       -6.152987   1.000000
  110       -6.152955   1.000000
  111       -6.150337   1.000000
  112       -6.134304   1.000000
  113       -6.105516   1.000000
  114       -6.103720   1.000000
  115       -6.098501   1.000000
  116       -6.098447   1.000000
  117       -6.098238   1.000000
  118       -6.052060   1.000000
  119       -6.052027   1.000000
  120       -6.050511   1.000000
  121       -5.601513   1.000000
  122       -5.601014   1.000000
  123       -5.600975   1.000000
  124       -5.494619   1.000000
  125       -5.494380   1.000000
  126       -5.426729   1.000000
  127       -5.426713   1.000000
  128       -5.426056   1.000000
  129       -5.394443   1.000000
  130       -5.389273   1.000000
  131       -5.370573   1.000000
  132       -5.370021   1.000000
  133       -5.369997   1.000000
  134       -5.345397   1.000000
  135       -5.345379   1.000000
  136       -5.343862   1.000000
  137       -5.316930   1.000000
  138       -5.316782   1.000000
  139       -5.272343   1.000000
  140       -5.272305   1.000000
  141       -5.270806   1.000000
  142       -5.015631   1.000000
  143       -5.003192   1.000000
  144       -5.002231   1.000000
  145       -5.002206   1.000000
  146       -4.954959   1.000000
  147       -4.954260   1.000000
  148       -4.941071   1.000001
  149       -4.940087   1.000001
  150       -4.940068   1.000001
  151       -4.912347   1.000002
  152       -4.911375   1.000002
  153       -4.911349   1.000002
  154       -4.890246   1.000004
  155       -4.889952   1.000004
  156       -4.889894   1.000004
  157       -4.824542   1.000032
  158       -4.824508   1.000032
  159       -4.823959   1.000033
  160       -4.721896   1.000522
  161       -4.720823   1.000536
  162       -4.622825   1.004357
  163       -4.621214   1.004488
  164       -4.621172   1.004491
  165       -4.573241   1.010034
  166       -4.570958   1.010386
  167       -4.565864   1.011201
  168       -4.565803   1.011211
  169       -4.565185   1.011313
  170       -4.560555   1.012094
  171       -4.532170   1.017594
  172       -4.531164   1.017810
  173       -4.513112   1.021830
  174       -4.502471   1.024287
  175       -4.498892   1.025115
  176       -4.498796   1.025137
  177       -4.488626   1.027455
  178       -4.488288   1.027531
  179       -4.488270   1.027535
  180       -4.455585   1.033739
  181       -4.455556   1.033743
  182       -4.455010   1.033818
  183       -4.418192   1.034565
  184       -4.417602   1.034487
  185       -4.417594   1.034486
  186       -4.360626   1.004736
  187       -4.251059   0.753587
  188       -4.251018   0.753443
  189       -4.248041   0.742721
  190       -4.135915   0.288628
  191       -4.102694   0.173659
  192       -4.098976   0.162273
  193       -4.098886   0.162002
  194       -4.089492   0.134728
  195       -4.089458   0.134633
  196       -4.087425   0.129014
  197       -4.083194   0.117652
  198       -4.052739   0.049141
  199       -3.996753  -0.019802
  200       -3.986677  -0.025674
  201       -3.985772  -0.026123
  202       -3.808986  -0.011095
  203       -3.807860  -0.010912
  204       -3.807838  -0.010909
  205       -3.654643  -0.000536
  206       -3.654592  -0.000535
  207       -3.652840  -0.000513
  208       -2.527608   0.000000
  209       -2.357028   0.000000
  210       -2.356982   0.000000
  211       -2.356252   0.000000
  212       -2.286658   0.000000
  213       -2.283429   0.000000
  214       -2.283323   0.000000
  215       -2.236034   0.000000
  216       -2.233685   0.000000
  217       -2.233682   0.000000
  218       -2.187365   0.000000
  219       -2.185092   0.000000
  220       -1.412528   0.000000
  221       -0.946139   0.000000
  222       -0.931687   0.000000
  223       -0.930923   0.000000
  224       -0.554768   0.000000
  225       -0.523386   0.000000
  226       -0.365667   0.000000
  227       -0.357638   0.000000
  228       -0.334861   0.000000
