 running on    8 total cores
 distrk:  each k-point on    8 cores,    1 groups
 distr:  one band on    4 cores,    2 groups
 using from now: INCAR     
 vasp.5.4.1 24Jun15 (build Jul 22 2015 12:26:21) gamma-only                     
  
 POSCAR found :  2 types and      38 ions
 scaLAPACK will be used
 LDA part: xc-table for Ceperly-Alder, standard interpolation
 POSCAR found :  2 types and      38 ions
 POSCAR, INCAR and KPOINTS ok, starting setup
 WARNING: small aliasing (wrap around) errors must be expected
 FFT: planning ...
 WAVECAR not read
 entering main loop
       N       E                     dE             d eps       ncg     rms          rms(c)
RMM:   1     0.474319749662E+04    0.47432E+04   -0.69571E+04   228   0.680E+02
RMM:   2     0.270305402990E+04   -0.20401E+04   -0.22423E+04   228   0.170E+02
RMM:   3     0.176538892397E+04   -0.93767E+03   -0.12097E+04   228   0.122E+02
RMM:   4     0.103898378313E+04   -0.72641E+03   -0.77902E+03   228   0.119E+02
RMM:   5     0.589256812378E+03   -0.44973E+03   -0.42111E+03   228   0.882E+01
RMM:   6     0.274763561377E+03   -0.31449E+03   -0.26674E+03   228   0.826E+01
RMM:   7     0.106733128497E+03   -0.16803E+03   -0.14570E+03   228   0.608E+01
RMM:   8    -0.201821923175E+02   -0.12692E+03   -0.99210E+02   228   0.654E+01
RMM:   9    -0.117624058325E+03   -0.97442E+02   -0.89393E+02   624   0.424E+01
RMM:  10    -0.161614435875E+03   -0.43990E+02   -0.39293E+02   718   0.145E+01
RMM:  11    -0.181167212335E+03   -0.19553E+02   -0.16372E+02   736   0.761E+00
RMM:  12    -0.188048187099E+03   -0.68810E+01   -0.62530E+01   733   0.397E+00    0.216E+01
RMM:  13    -0.187446526928E+03    0.60166E+00   -0.12694E+02   520   0.207E+01    0.223E+01
RMM:  14    -0.180479416893E+03    0.69671E+01   -0.45787E+01   513   0.136E+01    0.845E+00
RMM:  15    -0.180872484983E+03   -0.39307E+00   -0.18637E+01   561   0.557E+00    0.553E+00
RMM:  16    -0.181578528193E+03   -0.70604E+00   -0.94731E+00   591   0.295E+00    0.466E+00
RMM:  17    -0.182084125010E+03   -0.50560E+00   -0.51017E+00   569   0.197E+00    0.409E+00
RMM:  18    -0.182389257066E+03   -0.30513E+00   -0.29681E+00   568   0.138E+00    0.353E+00
RMM:  19    -0.182494360637E+03   -0.10510E+00   -0.13278E+00   555   0.105E+00    0.282E+00
RMM:  20    -0.182577649382E+03   -0.83289E-01   -0.57586E-01   560   0.923E-01    0.263E+00
RMM:  21    -0.182626329521E+03   -0.48680E-01   -0.32019E-01   523   0.931E-01    0.299E+00
RMM:  22    -0.182600083791E+03    0.26246E-01   -0.25201E-01   510   0.102E+00    0.232E+00
RMM:  23    -0.182528302441E+03    0.71781E-01   -0.89362E-02   488   0.665E-01    0.730E-01
RMM:  24    -0.182516763173E+03    0.11539E-01   -0.28545E-02   523   0.308E-01    0.574E-01
RMM:  25    -0.182514636006E+03    0.21272E-02   -0.10113E-02   507   0.222E-01    0.748E-01
RMM:  26    -0.182509229203E+03    0.54068E-02   -0.51989E-03   481   0.177E-01    0.397E-01
RMM:  27    -0.182504605753E+03    0.46235E-02   -0.39048E-03   478   0.148E-01    0.235E-01
RMM:  28    -0.182502792322E+03    0.18134E-02   -0.16539E-03   478   0.905E-02    0.127E-01
RMM:  29    -0.182503279481E+03   -0.48716E-03   -0.60545E-04   378   0.585E-02    0.113E-01
RMM:  30    -0.182505177584E+03   -0.18981E-02   -0.56106E-04   361   0.593E-02    0.100E-01
RMM:  31    -0.182506698697E+03   -0.15211E-02   -0.24488E-04   291   0.399E-02    0.656E-02
RMM:  32    -0.182508899651E+03   -0.22010E-02   -0.24273E-04   289   0.365E-02    0.362E-02
RMM:  33    -0.182511640312E+03   -0.27407E-02   -0.33974E-04   298   0.339E-02    0.356E-02
RMM:  34    -0.182515731312E+03   -0.40910E-02   -0.93120E-04   331   0.399E-02    0.291E-02
RMM:  35    -0.182516959977E+03   -0.12287E-02   -0.36987E-04   304   0.253E-02    0.182E-02
RMM:  36    -0.182518386682E+03   -0.14267E-02   -0.36315E-04   302   0.244E-02    0.137E-02
RMM:  37    -0.182518890904E+03   -0.50422E-03   -0.18545E-04   278   0.206E-02    0.127E-02
RMM:  38    -0.182519119030E+03   -0.22813E-03   -0.10290E-04   261   0.164E-02    0.881E-03
RMM:  39    -0.182519194974E+03   -0.75943E-04   -0.34978E-05   215   0.131E-02
   1 F= -.18251919E+03 E0= -.18256686E+03  d E =-.182519E+03
 curvature:   0.00 expect dE= 0.000E+00 dE for cont linesearch  0.000E+00
 trial: gam= 0.00000 g(F)=  0.379E-06 g(S)=  0.000E+00 ort = 0.000E+00 (trialstep = 0.100E+01)
 search vector abs. value=  0.379E-06
 reached required accuracy - stopping structural energy minimisation
 running on    8 total cores
 distrk:  each k-point on    8 cores,    1 groups
 distr:  one band on    4 cores,    2 groups
 using from now: INCAR     
 vasp.5.4.1 24Jun15 (build Jan 06 2016 13:19:48) gamma-only                     
  
 POSCAR found :  2 types and      38 ions
 scaLAPACK will be used
 LDA part: xc-table for Ceperly-Alder, standard interpolation
 POSCAR found :  2 types and      38 ions
 POSCAR, INCAR and KPOINTS ok, starting setup
 WARNING: small aliasing (wrap around) errors must be expected
 FFT: planning ...
 WAVECAR not read
 entering main loop
       N       E                     dE             d eps       ncg     rms          rms(c)
RMM:   1     0.474319749662E+04    0.47432E+04   -0.69571E+04   228   0.680E+02
RMM:   2     0.270305402990E+04   -0.20401E+04   -0.22423E+04   228   0.170E+02
RMM:   3     0.176538892397E+04   -0.93767E+03   -0.12097E+04   228   0.122E+02
RMM:   4     0.103898378313E+04   -0.72641E+03   -0.77902E+03   228   0.119E+02
RMM:   5     0.589256812378E+03   -0.44973E+03   -0.42111E+03   228   0.882E+01
RMM:   6     0.274763561377E+03   -0.31449E+03   -0.26674E+03   228   0.826E+01
RMM:   7     0.106733128497E+03   -0.16803E+03   -0.14570E+03   228   0.608E+01
RMM:   8    -0.201821923175E+02   -0.12692E+03   -0.99210E+02   228   0.654E+01
RMM:   9    -0.117624058325E+03   -0.97442E+02   -0.89393E+02   624   0.424E+01
RMM:  10    -0.161614435875E+03   -0.43990E+02   -0.39293E+02   718   0.145E+01
RMM:  11    -0.181167212335E+03   -0.19553E+02   -0.16372E+02   736   0.761E+00
RMM:  12    -0.188048187099E+03   -0.68810E+01   -0.62530E+01   733   0.397E+00    0.216E+01
RMM:  13    -0.187446526928E+03    0.60166E+00   -0.12694E+02   520   0.207E+01    0.223E+01
RMM:  14    -0.180479416893E+03    0.69671E+01   -0.45787E+01   513   0.136E+01    0.845E+00
RMM:  15    -0.180872484984E+03   -0.39307E+00   -0.18637E+01   561   0.557E+00    0.553E+00
RMM:  16    -0.181578528193E+03   -0.70604E+00   -0.94731E+00   591   0.295E+00    0.466E+00
RMM:  17    -0.182084125009E+03   -0.50560E+00   -0.51017E+00   569   0.197E+00    0.409E+00
RMM:  18    -0.182389257066E+03   -0.30513E+00   -0.29681E+00   568   0.138E+00    0.353E+00
RMM:  19    -0.182494360637E+03   -0.10510E+00   -0.13278E+00   555   0.105E+00    0.282E+00
RMM:  20    -0.182577649382E+03   -0.83289E-01   -0.57586E-01   560   0.923E-01    0.263E+00
RMM:  21    -0.182626329521E+03   -0.48680E-01   -0.32019E-01   523   0.931E-01    0.299E+00
RMM:  22    -0.182600083790E+03    0.26246E-01   -0.25201E-01   510   0.102E+00    0.232E+00
RMM:  23    -0.182528302441E+03    0.71781E-01   -0.89362E-02   488   0.665E-01    0.730E-01
RMM:  24    -0.182516763173E+03    0.11539E-01   -0.28545E-02   523   0.308E-01    0.574E-01
RMM:  25    -0.182514636005E+03    0.21272E-02   -0.10113E-02   507   0.222E-01    0.748E-01
RMM:  26    -0.182509229203E+03    0.54068E-02   -0.51989E-03   481   0.177E-01    0.397E-01
RMM:  27    -0.182504605753E+03    0.46235E-02   -0.39048E-03   478   0.148E-01    0.235E-01
RMM:  28    -0.182502792322E+03    0.18134E-02   -0.16539E-03   478   0.905E-02    0.127E-01
RMM:  29    -0.182503279481E+03   -0.48716E-03   -0.60545E-04   378   0.585E-02    0.113E-01
RMM:  30    -0.182505177584E+03   -0.18981E-02   -0.56106E-04   361   0.593E-02    0.100E-01
RMM:  31    -0.182506698697E+03   -0.15211E-02   -0.24488E-04   291   0.399E-02    0.656E-02
RMM:  32    -0.182508899650E+03   -0.22010E-02   -0.24273E-04   289   0.365E-02    0.362E-02
RMM:  33    -0.182511640311E+03   -0.27407E-02   -0.33974E-04   298   0.339E-02    0.356E-02
RMM:  34    -0.182515731312E+03   -0.40910E-02   -0.93120E-04   331   0.399E-02    0.291E-02
RMM:  35    -0.182516959977E+03   -0.12287E-02   -0.36987E-04   304   0.253E-02    0.182E-02
RMM:  36    -0.182518386682E+03   -0.14267E-02   -0.36315E-04   302   0.244E-02    0.137E-02
RMM:  37    -0.182518890903E+03   -0.50422E-03   -0.18545E-04   278   0.206E-02    0.127E-02
RMM:  38    -0.182519119030E+03   -0.22813E-03   -0.10290E-04   261   0.164E-02    0.881E-03
RMM:  39    -0.182519194973E+03   -0.75943E-04   -0.34978E-05   215   0.131E-02
   1 F= -.18251919E+03 E0= -.18256686E+03  d E =-.182519E+03
 curvature:   0.00 expect dE= 0.000E+00 dE for cont linesearch  0.000E+00
 trial: gam= 0.00000 g(F)=  0.379E-06 g(S)=  0.000E+00 ort = 0.000E+00 (trialstep = 0.100E+01)
 search vector abs. value=  0.379E-06
 reached required accuracy - stopping structural energy minimisation
 running on    8 total cores
 distrk:  each k-point on    8 cores,    1 groups
 distr:  one band on    4 cores,    2 groups
 using from now: INCAR     
 vasp.5.4.1 24Jun15 (build Jan 06 2016 13:19:48) gamma-only                     
  
 POSCAR found :  2 types and      38 ions
 scaLAPACK will be used
 LDA part: xc-table for Ceperly-Alder, standard interpolation
 POSCAR found :  2 types and      38 ions
 POSCAR, INCAR and KPOINTS ok, starting setup
 WARNING: small aliasing (wrap around) errors must be expected
 FFT: planning ...
 WAVECAR not read
 WARNING: random wavefunctions but no delay for mixing, default for NELMDL
 entering main loop
       N       E                     dE             d eps       ncg     rms          rms(c)
RMM:   1     0.474319749662E+04    0.47432E+04   -0.69571E+04   228   0.680E+02
RMM:   2     0.270305402990E+04   -0.20401E+04   -0.22423E+04   228   0.170E+02
RMM:   3     0.176538892397E+04   -0.93767E+03   -0.12097E+04   228   0.122E+02
RMM:   4     0.103898378313E+04   -0.72641E+03   -0.77902E+03   228   0.119E+02
RMM:   5     0.589256812378E+03   -0.44973E+03   -0.42111E+03   228   0.882E+01
RMM:   6     0.274763561377E+03   -0.31449E+03   -0.26674E+03   228   0.826E+01
RMM:   7     0.106733128497E+03   -0.16803E+03   -0.14570E+03   228   0.608E+01
RMM:   8    -0.201821923175E+02   -0.12692E+03   -0.99210E+02   228   0.654E+01
RMM:   9    -0.117624058325E+03   -0.97442E+02   -0.89393E+02   624   0.424E+01
RMM:  10    -0.161614435875E+03   -0.43990E+02   -0.39293E+02   718   0.145E+01
RMM:  11    -0.181167212335E+03   -0.19553E+02   -0.16372E+02   736   0.761E+00
RMM:  12    -0.188048187099E+03   -0.68810E+01   -0.62530E+01   733   0.397E+00    0.216E+01
RMM:  13    -0.187446526928E+03    0.60166E+00   -0.12694E+02   520   0.207E+01    0.223E+01
RMM:  14    -0.180479416894E+03    0.69671E+01   -0.45787E+01   513   0.136E+01    0.845E+00
RMM:  15    -0.180872484985E+03   -0.39307E+00   -0.18637E+01   561   0.557E+00    0.553E+00
RMM:  16    -0.181578528193E+03   -0.70604E+00   -0.94731E+00   591   0.295E+00    0.466E+00
RMM:  17    -0.182084125009E+03   -0.50560E+00   -0.51017E+00   569   0.197E+00    0.409E+00
RMM:  18    -0.182389257066E+03   -0.30513E+00   -0.29681E+00   568   0.138E+00    0.353E+00
RMM:  19    -0.182494360637E+03   -0.10510E+00   -0.13278E+00   555   0.105E+00    0.282E+00
RMM:  20    -0.182577649381E+03   -0.83289E-01   -0.57586E-01   560   0.923E-01    0.263E+00
RMM:  21    -0.182626329521E+03   -0.48680E-01   -0.32019E-01   523   0.931E-01    0.299E+00
RMM:  22    -0.182600083791E+03    0.26246E-01   -0.25201E-01   510   0.102E+00    0.232E+00
RMM:  23    -0.182528302441E+03    0.71781E-01   -0.89362E-02   488   0.665E-01    0.730E-01
RMM:  24    -0.182516763173E+03    0.11539E-01   -0.28545E-02   523   0.308E-01    0.574E-01
RMM:  25    -0.182514636006E+03    0.21272E-02   -0.10113E-02   507   0.222E-01    0.748E-01
RMM:  26    -0.182509229203E+03    0.54068E-02   -0.51989E-03   481   0.177E-01    0.397E-01
RMM:  27    -0.182504605752E+03    0.46235E-02   -0.39048E-03   478   0.148E-01    0.235E-01
RMM:  28    -0.182502792322E+03    0.18134E-02   -0.16539E-03   478   0.905E-02    0.127E-01
RMM:  29    -0.182503279481E+03   -0.48716E-03   -0.60546E-04   378   0.585E-02    0.113E-01
RMM:  30    -0.182505177584E+03   -0.18981E-02   -0.56106E-04   361   0.593E-02    0.100E-01
RMM:  31    -0.182506698697E+03   -0.15211E-02   -0.24488E-04   291   0.399E-02    0.656E-02
RMM:  32    -0.182508899651E+03   -0.22010E-02   -0.24273E-04   289   0.365E-02    0.362E-02
RMM:  33    -0.182511640311E+03   -0.27407E-02   -0.33974E-04   298   0.339E-02    0.356E-02
RMM:  34    -0.182515731312E+03   -0.40910E-02   -0.93120E-04   331   0.399E-02    0.291E-02
RMM:  35    -0.182516959977E+03   -0.12287E-02   -0.36987E-04   304   0.253E-02    0.182E-02
RMM:  36    -0.182518386681E+03   -0.14267E-02   -0.36315E-04   302   0.244E-02    0.137E-02
RMM:  37    -0.182518890903E+03   -0.50422E-03   -0.18545E-04   278   0.206E-02    0.127E-02
RMM:  38    -0.182519119031E+03   -0.22813E-03   -0.10290E-04   261   0.164E-02    0.881E-03
RMM:  39    -0.182519194974E+03   -0.75943E-04   -0.34978E-05   215   0.131E-02
   1 F= -.18251919E+03 E0= -.18256686E+03  d E =-.182519E+03
 curvature:   0.00 expect dE= 0.000E+00 dE for cont linesearch  0.000E+00
 trial: gam= 0.00000 g(F)=  0.379E-06 g(S)=  0.000E+00 ort = 0.000E+00 (trialstep = 0.100E+01)
 search vector abs. value=  0.379E-06
 reached required accuracy - stopping structural energy minimisation
