<?xml version="1.0" encoding="ISO-8859-1"?>
<modeling>
 <generator>
  <i name="program" type="string">vasp </i>
  <i name="version" type="string">5.4.1  </i>
  <i name="subversion" type="string">24Jun15 (build Jan 06 2016 13:19:48) gamma-only                       parallel </i>
  <i name="platform" type="string">IFC91_ompi </i>
  <i name="date" type="string">2016 02 18 </i>
  <i name="time" type="string">19:44:57 </i>
 </generator>
 <incar>
  <i type="string" name="SYSTEM"> Pt cube particle</i>
  <i type="string" name="PREC">normal</i>
  <i type="int" name="IALGO">    48</i>
  <i type="int" name="IBRION">     2</i>
  <i name="EDIFF">      0.00010000</i>
  <i name="EDIFFG">     -0.00500000</i>
  <i type="int" name="NSW">   200</i>
  <i type="int" name="ISIF">     0</i>
  <i type="int" name="ISYM">     0</i>
  <i name="ENMAX">    274.00000000</i>
  <i name="POTIM">      0.05000000</i>
  <i type="string" name="LREAL">Auto</i>
  <i type="logical" name="LPLANE"> T  </i>
  <i type="logical" name="LWAVE"> F  </i>
  <i type="logical" name="LCHARG"> F  </i>
  <v type="int" name="KPOINT_BSE">    -1     0     0     0</v>
 </incar>
 <kpoints>
  <generation param="Monkhorst-Pack">
   <v type="int" name="divisions">       1        1        1 </v>
   <v name="usershift">      0.00000000       0.00000000       0.00000000 </v>
   <v name="genvec1">      1.00000000       0.00000000       0.00000000 </v>
   <v name="genvec2">      0.00000000       1.00000000       0.00000000 </v>
   <v name="genvec3">      0.00000000       0.00000000       1.00000000 </v>
   <v name="shift">      0.00000000       0.00000000       0.00000000 </v>
  </generation>
  <varray name="kpointlist" >
   <v>       0.00000000       0.00000000       0.00000000 </v>
  </varray>
  <varray name="weights" >
   <v>       1.00000000 </v>
  </varray>
 </kpoints>
 <parameters>
  <separator name="general" >
   <i type="string" name="SYSTEM">Pt cube particle</i>
   <i type="logical" name="LCOMPAT"> F  </i>
  </separator>
  <separator name="electronic" >
   <i type="string" name="PREC">normal</i>
   <i name="ENMAX">    274.00000000</i>
   <i name="ENAUG">    416.23000000</i>
   <i name="EDIFF">      0.00010000</i>
   <i type="int" name="IALGO">    48</i>
   <i type="int" name="IWAVPR">    11</i>
   <i type="int" name="NBANDS">   228</i>
   <i name="NELECT">    380.00000000</i>
   <i type="int" name="TURBO">     0</i>
   <i type="int" name="IRESTART">     0</i>
   <i type="int" name="NREBOOT">     0</i>
   <i type="int" name="NMIN">     0</i>
   <i name="EREF">      0.00000000</i>
   <separator name="electronic smearing" >
    <i type="int" name="ISMEAR">     1</i>
    <i name="SIGMA">      0.20000000</i>
    <i name="KSPACING">      0.50000000</i>
    <i type="logical" name="KGAMMA"> T  </i>
   </separator>
   <separator name="electronic projectors" >
    <i type="logical" name="LREAL"> T  </i>
    <v name="ROPT">     -0.00050000     -0.00050000</v>
    <i type="int" name="LMAXPAW">  -100</i>
    <i type="int" name="LMAXMIX">     2</i>
    <i type="logical" name="NLSPLINE"> F  </i>
   </separator>
   <separator name="electronic startup" >
    <i type="int" name="ISTART">     0</i>
    <i type="int" name="ICHARG">     2</i>
    <i type="int" name="INIWAV">     1</i>
   </separator>
   <separator name="electronic spin" >
    <i type="int" name="ISPIN">     1</i>
    <i type="logical" name="LNONCOLLINEAR"> F  </i>
    <v name="MAGMOM">      1.00000000      1.00000000      1.00000000      1.00000000      1.00000000      1.00000000      1.00000000      1.00000000      1.00000000      1.00000000      1.00000000      1.00000000      1.00000000      1.00000000      1.00000000      1.00000000      1.00000000      1.00000000      1.00000000      1.00000000
      1.00000000      1.00000000      1.00000000      1.00000000      1.00000000      1.00000000      1.00000000      1.00000000      1.00000000      1.00000000      1.00000000      1.00000000      1.00000000      1.00000000      1.00000000      1.00000000      1.00000000      1.00000000</v>
    <i name="NUPDOWN">     -1.00000000</i>
    <i type="logical" name="LSORBIT"> F  </i>
    <v name="SAXIS">      0.00000000      0.00000000      1.00000000</v>
    <i type="logical" name="LSPIRAL"> F  </i>
    <v name="QSPIRAL">      0.00000000      0.00000000      0.00000000</v>
    <i type="logical" name="LZEROZ"> F  </i>
   </separator>
   <separator name="electronic exchange-correlation" >
    <i type="logical" name="LASPH"> F  </i>
    <i type="logical" name="LMETAGGA"> F  </i>
   </separator>
   <separator name="electronic convergence" >
    <i type="int" name="NELM">    60</i>
    <i type="int" name="NELMDL">     0</i>
    <i type="int" name="NELMIN">     2</i>
    <i name="ENINI">    274.00000000</i>
    <separator name="electronic convergence detail" >
     <i type="logical" name="LDIAG"> T  </i>
     <i type="logical" name="LSUBROT"> F  </i>
     <i name="WEIMIN">      0.00100000</i>
     <i name="EBREAK">      0.00000011</i>
     <i name="DEPER">      0.30000000</i>
     <i type="int" name="NRMM">     4</i>
     <i name="TIME">      0.40000000</i>
    </separator>
   </separator>
   <separator name="electronic mixer" >
    <i name="AMIX">      0.40000000</i>
    <i name="BMIX">      1.00000000</i>
    <i name="AMIN">      0.10000000</i>
    <i name="AMIX_MAG">      1.60000000</i>
    <i name="BMIX_MAG">      1.00000000</i>
    <separator name="electronic mixer details" >
     <i type="int" name="IMIX">     4</i>
     <i type="logical" name="MIXFIRST"> F  </i>
     <i type="int" name="MAXMIX">   -45</i>
     <i name="WC">    100.00000000</i>
     <i type="int" name="INIMIX">     1</i>
     <i type="int" name="MIXPRE">     1</i>
     <i type="int" name="MREMOVE">     5</i>
    </separator>
   </separator>
   <separator name="electronic dipolcorrection" >
    <i type="logical" name="LDIPOL"> F  </i>
    <i type="logical" name="LMONO"> F  </i>
    <i type="int" name="IDIPOL">     0</i>
    <i name="EPSILON">      1.00000000</i>
    <v name="DIPOL">   -100.00000000   -100.00000000   -100.00000000</v>
    <i name="EFIELD">      0.00000000</i>
   </separator>
  </separator>
  <separator name="grids" >
   <i type="int" name="NGX">    80</i>
   <i type="int" name="NGY">    80</i>
   <i type="int" name="NGZ">    80</i>
   <i type="int" name="NGXF">   160</i>
   <i type="int" name="NGYF">   160</i>
   <i type="int" name="NGZF">   160</i>
   <i type="logical" name="ADDGRID"> F  </i>
  </separator>
  <separator name="ionic" >
   <i type="int" name="NSW">   200</i>
   <i type="int" name="IBRION">     2</i>
   <i type="int" name="ISIF">     0</i>
   <i name="PSTRESS">      0.00000000</i>
   <i name="EDIFFG">     -0.00500000</i>
   <i type="int" name="NFREE">     1</i>
   <i name="POTIM">      0.05000000</i>
   <i name="SMASS">     -3.00000000</i>
   <i name="SCALEE">      1.00000000</i>
  </separator>
  <separator name="ionic md" >
   <i name="TEBEG">      0.00010000</i>
   <i name="TEEND">      0.00010000</i>
   <i type="int" name="NBLOCK">     1</i>
   <i type="int" name="KBLOCK">   200</i>
   <i type="int" name="NPACO">   256</i>
   <i name="APACO">     16.00000000</i>
  </separator>
  <separator name="symmetry" >
   <i type="int" name="ISYM">     0</i>
   <i name="SYMPREC">      0.00001000</i>
  </separator>
  <separator name="dos" >
   <i type="logical" name="LORBIT"> F  </i>
   <v name="RWIGS">     -1.00000000     -1.00000000</v>
   <i type="int" name="NEDOS">   301</i>
   <i name="EMIN">     10.00000000</i>
   <i name="EMAX">    -10.00000000</i>
   <i name="EFERMI">      0.00000000</i>
  </separator>
  <separator name="writing" >
   <i type="int" name="NWRITE">     2</i>
   <i type="logical" name="LWAVE"> F  </i>
   <i type="logical" name="LCHARG"> F  </i>
   <i type="logical" name="LPARD"> F  </i>
   <i type="logical" name="LVTOT"> F  </i>
   <i type="logical" name="LVHAR"> F  </i>
   <i type="logical" name="LELF"> F  </i>
   <i type="logical" name="LOPTICS"> F  </i>
   <v name="STM">      0.00000000      0.00000000      0.00000000      0.00000000      0.00000000      0.00000000      0.00000000</v>
  </separator>
  <separator name="performance" >
   <i type="int" name="NPAR">     2</i>
   <i type="int" name="NSIM">     4</i>
   <i type="int" name="NBLK">    -1</i>
   <i type="logical" name="LPLANE"> T  </i>
   <i type="logical" name="LSCALAPACK"> T  </i>
   <i type="logical" name="LSCAAWARE"> F  </i>
   <i type="logical" name="LSCALU"> F  </i>
   <i type="logical" name="LASYNC"> F  </i>
   <i type="logical" name="LORBITALREAL"> F  </i>
  </separator>
  <separator name="miscellaneous" >
   <i type="int" name="IDIOT">     3</i>
   <i type="logical" name="LMUSIC"> F  </i>
   <v name="POMASS">    195.08000000    106.42000000</v>
   <v name="DARWINR">      0.00000000      0.00000000</v>
   <v name="DARWINV">      1.00000000      1.00000000</v>
   <i type="logical" name="LCORR"> T  </i>
  </separator>
  <i type="logical" name="GGA_COMPAT"> T  </i>
  <i type="logical" name="LBERRY"> F  </i>
  <i type="int" name="ICORELEVEL">     0</i>
  <i type="logical" name="LDAU"> F  </i>
  <i type="int" name="I_CONSTRAINED_M">     0</i>
  <separator name="electronic exchange-correlation" >
   <i type="string" name="GGA">--</i>
   <i type="int" name="VOSKOWN">     0</i>
   <i type="logical" name="LHFCALC"> F  </i>
   <i type="string" name="PRECFOCK"></i>
   <i type="logical" name="LSYMGRAD"> F  </i>
   <i type="logical" name="LHFONE"> F  </i>
   <i type="logical" name="LRHFCALC"> F  </i>
   <i type="logical" name="LTHOMAS"> F  </i>
   <i type="logical" name="LMODELHF"> F  </i>
   <i name="ENCUT4O">     -1.00000000</i>
   <i type="int" name="EXXOEP">     0</i>
   <i type="int" name="FOURORBIT">     0</i>
   <i name="AEXX">      0.00000000</i>
   <i name="HFALPHA">      0.00000000</i>
   <i name="MCALPHA">      0.00000000</i>
   <i name="ALDAX">      1.00000000</i>
   <i name="AGGAX">      1.00000000</i>
   <i name="ALDAC">      1.00000000</i>
   <i name="AGGAC">      1.00000000</i>
   <i type="int" name="NKREDX">     1</i>
   <i type="int" name="NKREDY">     1</i>
   <i type="int" name="NKREDZ">     1</i>
   <i type="logical" name="SHIFTRED"> F  </i>
   <i type="logical" name="ODDONLY"> F  </i>
   <i type="logical" name="EVENONLY"> F  </i>
   <i type="int" name="LMAXFOCK">     0</i>
   <i type="int" name="NMAXFOCKAE">     0</i>
   <i type="logical" name="LFOCKAEDFT"> F  </i>
   <i name="HFSCREEN">      0.00000000</i>
   <i name="HFSCREENC">      0.00000000</i>
   <i type="int" name="NBANDSGWLOW">     0</i>
  </separator>
  <separator name="vdW DFT" >
   <i type="logical" name="LUSE_VDW"> F  </i>
   <i name="Zab_VDW">     -0.84910000</i>
   <i name="PARAM1">      0.12340000</i>
   <i name="PARAM2">      1.00000000</i>
   <i name="PARAM3">      0.00000000</i>
  </separator>
  <separator name="model GW" >
   <i type="int" name="MODEL_GW">     0</i>
   <i name="MODEL_EPS0">     92.08421053</i>
   <i name="MODEL_ALPHA">      1.00000000</i>
  </separator>
  <separator name="linear response parameters" >
   <i type="logical" name="LEPSILON"> F  </i>
   <i type="logical" name="LRPA"> F  </i>
   <i type="logical" name="LNABLA"> F  </i>
   <i type="logical" name="LVEL"> F  </i>
   <i type="int" name="KINTER">     0</i>
   <i name="CSHIFT">      0.10000000</i>
   <i name="OMEGAMAX">     -1.00000000</i>
   <i name="DEG_THRESHOLD">      0.00200000</i>
  </separator>
  <separator name="orbital magnetization" >
   <i type="logical" name="NUCIND"> F  </i>
   <v name="MAGPOS">      0.00000000      0.00000000      0.00000000</v>
   <i type="logical" name="LNICSALL"> T  </i>
   <i type="logical" name="ORBITALMAG"> F  </i>
   <i type="logical" name="LMAGBLOCH"> F  </i>
   <i type="logical" name="LCHIMAG"> F  </i>
   <i type="logical" name="LGAUGE"> T  </i>
   <i type="int" name="MAGATOM">     0</i>
   <v name="MAGDIPOL">      0.00000000      0.00000000      0.00000000</v>
   <v name="AVECCONST">      0.00000000      0.00000000      0.00000000</v>
  </separator>
  <separator name="response functions" >
   <i type="logical" name="LADDER"> F  </i>
   <i type="logical" name="LFXC"> F  </i>
   <i type="logical" name="LHARTREE"> T  </i>
   <i type="int" name="IBSE">     0</i>
   <v type="int" name="KPOINT">    -1     0     0     0</v>
   <i type="logical" name="LTCTE"> F  </i>
   <i type="logical" name="LTETE"> F  </i>
   <i type="logical" name="LTRIPLET"> F  </i>
   <i type="logical" name="LFXCEPS"> F  </i>
   <i type="logical" name="LFXHEG"> F  </i>
   <i type="int" name="NATURALO">     0</i>
   <i type="logical" name="L2ORDER"> F  </i>
   <i type="logical" name="LUSEW"> F  </i>
   <i name="ENCUTGW">     -2.00000000</i>
   <i name="ENCUTGWSOFT">     -2.00000000</i>
   <i name="ENCUTLF">     -1.00000000</i>
   <i type="int" name="LMAXMP2">    -1</i>
   <i name="SCISSOR">      0.00000000</i>
   <i type="int" name="NOMEGA">     0</i>
   <i type="int" name="NOMEGAR">     0</i>
   <i type="int" name="NBANDSGW">    -1</i>
   <i type="int" name="NBANDSO">    -1</i>
   <i type="int" name="NBANDSV">    -1</i>
   <i type="int" name="NELM">     1</i>
   <i type="int" name="NELMHF">     1</i>
   <i type="int" name="DIM">     3</i>
   <i type="int" name="ANTIRES">     0</i>
   <i name="OMEGAMAX">    -30.00000000</i>
   <i name="OMEGAMIN">    -30.00000000</i>
   <i name="OMEGATL">   -200.00000000</i>
   <i type="int" name="OMEGAGRID">     0</i>
   <i name="CSHIFT">     -0.10000000</i>
   <i type="logical" name="SELFENERGY"> F  </i>
   <i type="logical" name="LSPECTRAL"> F  </i>
   <i type="logical" name="LSPECTRALGW"> F  </i>
   <i type="logical" name="LSINGLES"> F  </i>
   <i type="logical" name="LFERMIGW"> F  </i>
   <i type="logical" name="ODDONLYGW"> F  </i>
   <i type="logical" name="EVENONLYGW"> F  </i>
   <i type="int" name="NKREDLFX">     1</i>
   <i type="int" name="NKREDLFY">     1</i>
   <i type="int" name="NKREDLFZ">     1</i>
   <i type="int" name="MAXMEM">  1800</i>
   <i type="int" name="TELESCOPE">     0</i>
   <i type="int" name="TAUPAR">     1</i>
   <i type="int" name="OMEGAPAR">    -1</i>
   <i name="LAMBDA">      1.00000000</i>
  </separator>
  <separator name="External order field" >
   <i name="OFIELD_KAPPA">      0.00000000</i>
   <v name="OFIELD_K">      0.00000000      0.00000000      0.00000000</v>
   <i name="OFIELD_Q6_NEAR">      0.00000000</i>
   <i name="OFIELD_Q6_FAR">      0.00000000</i>
   <i name="OFIELD_A">      0.00000000</i>
  </separator>
  <separator name="solvation model" >
   <i type="logical" name="LSOL"> F  </i>
  </separator>
 </parameters>
 <atominfo>
  <atoms>      38 </atoms>
  <types>       2 </types>
  <array name="atoms" >
   <dimension dim="1">ion</dimension>
   <field type="string">element</field>
   <field type="int">atomtype</field>
   <set>
    <rc><c>Pt</c><c>   1</c></rc>
    <rc><c>Pt</c><c>   1</c></rc>
    <rc><c>Pt</c><c>   1</c></rc>
    <rc><c>Pt</c><c>   1</c></rc>
    <rc><c>Pt</c><c>   1</c></rc>
    <rc><c>Pt</c><c>   1</c></rc>
    <rc><c>Pt</c><c>   1</c></rc>
    <rc><c>Pt</c><c>   1</c></rc>
    <rc><c>Pt</c><c>   1</c></rc>
    <rc><c>Pt</c><c>   1</c></rc>
    <rc><c>Pt</c><c>   1</c></rc>
    <rc><c>Pt</c><c>   1</c></rc>
    <rc><c>Pt</c><c>   1</c></rc>
    <rc><c>Pt</c><c>   1</c></rc>
    <rc><c>Pt</c><c>   1</c></rc>
    <rc><c>Pt</c><c>   1</c></rc>
    <rc><c>Pt</c><c>   1</c></rc>
    <rc><c>Pt</c><c>   1</c></rc>
    <rc><c>Pt</c><c>   1</c></rc>
    <rc><c>Pt</c><c>   1</c></rc>
    <rc><c>Pt</c><c>   1</c></rc>
    <rc><c>Pt</c><c>   1</c></rc>
    <rc><c>Pt</c><c>   1</c></rc>
    <rc><c>Pt</c><c>   1</c></rc>
    <rc><c>Pt</c><c>   1</c></rc>
    <rc><c>Pt</c><c>   1</c></rc>
    <rc><c>Pt</c><c>   1</c></rc>
    <rc><c>Pt</c><c>   1</c></rc>
    <rc><c>Pt</c><c>   1</c></rc>
    <rc><c>Pt</c><c>   1</c></rc>
    <rc><c>Pt</c><c>   1</c></rc>
    <rc><c>Pt</c><c>   1</c></rc>
    <rc><c>Pd</c><c>   2</c></rc>
    <rc><c>Pd</c><c>   2</c></rc>
    <rc><c>Pd</c><c>   2</c></rc>
    <rc><c>Pd</c><c>   2</c></rc>
    <rc><c>Pd</c><c>   2</c></rc>
    <rc><c>Pd</c><c>   2</c></rc>
   </set>
  </array>
  <array name="atomtypes" >
   <dimension dim="1">type</dimension>
   <field type="int">atomspertype</field>
   <field type="string">element</field>
   <field>mass</field>
   <field>valence</field>
   <field type="string">pseudopotential</field>
   <set>
    <rc><c>  32</c><c>Pt</c><c>    195.08000000</c><c>     10.00000000</c><c>  PAW Pt                                </c></rc>
    <rc><c>   6</c><c>Pd</c><c>    106.42000000</c><c>     10.00000000</c><c>  PAW Pd                                </c></rc>
   </set>
  </array>
 </atominfo>
 <structure name="initialpos" >
  <crystal>
   <varray name="basis" >
    <v>      18.00000000       0.00000000       0.00000000 </v>
    <v>       0.00000000      18.00000000       0.00000000 </v>
    <v>       0.00000000       0.00000000      18.00000000 </v>
   </varray>
   <i name="volume">   5832.00000000 </i>
   <varray name="rec_basis" >
    <v>       0.05555556       0.00000000       0.00000000 </v>
    <v>       0.00000000       0.05555556       0.00000000 </v>
    <v>       0.00000000       0.00000000       0.05555556 </v>
   </varray>
  </crystal>
  <varray name="positions" >
   <v>       0.72415987       0.57367709       0.49999884 </v>
   <v>       0.57367748       0.72416476       0.49999896 </v>
   <v>       0.27584718       0.57366508       0.50000102 </v>
   <v>       0.42633392       0.72415229       0.50000050 </v>
   <v>       0.27584506       0.42633293       0.50000053 </v>
   <v>       0.42633278       0.27584919       0.49999961 </v>
   <v>       0.72415965       0.42632488       0.49999934 </v>
   <v>       0.57367347       0.27583777       0.49999958 </v>
   <v>       0.66139785       0.50000291       0.61403403 </v>
   <v>       0.33859673       0.49999821       0.61404334 </v>
   <v>       0.50000485       0.66140186       0.61404044 </v>
   <v>       0.49999876       0.33859700       0.61404026 </v>
   <v>       0.64886196       0.64886231       0.60622248 </v>
   <v>       0.35115009       0.64885073       0.60622329 </v>
   <v>       0.35114542       0.35114654       0.60622383 </v>
   <v>       0.64885517       0.35114461       0.60622041 </v>
   <v>       0.66139838       0.49999881       0.38596471 </v>
   <v>       0.33859854       0.49999905       0.38596026 </v>
   <v>       0.50000385       0.66140334       0.38595872 </v>
   <v>       0.50000369       0.33859956       0.38596150 </v>
   <v>       0.64886010       0.64885942       0.39377423 </v>
   <v>       0.35115184       0.64884871       0.39377816 </v>
   <v>       0.35115095       0.35115082       0.39377660 </v>
   <v>       0.64885984       0.35114035       0.39377625 </v>
   <v>       0.57516716       0.57516805       0.71035430 </v>
   <v>       0.42483370       0.57516629       0.71035524 </v>
   <v>       0.42482849       0.42483027       0.71035654 </v>
   <v>       0.57516215       0.42483732       0.71034915 </v>
   <v>       0.57516540       0.57516346       0.28964734 </v>
   <v>       0.42483436       0.57516557       0.28964991 </v>
   <v>       0.42483466       0.42483341       0.28964981 </v>
   <v>       0.57516653       0.42483369       0.28964740 </v>
   <v>       0.49998814       0.49999905       0.60489762 </v>
   <v>       0.42563785       0.42564770       0.49999960 </v>
   <v>       0.42564235       0.57434859       0.49999975 </v>
   <v>       0.49999163       0.49999846       0.39510135 </v>
   <v>       0.57434040       0.57435174       0.49999737 </v>
   <v>       0.57433976       0.42564820       0.49999771 </v>
  </varray>
  <varray name="selective"  type="logical" >
   <v type="logical" >  T  T  T </v>
   <v type="logical" >  T  T  T </v>
   <v type="logical" >  T  T  T </v>
   <v type="logical" >  T  T  T </v>
   <v type="logical" >  T  T  T </v>
   <v type="logical" >  T  T  T </v>
   <v type="logical" >  T  T  T </v>
   <v type="logical" >  T  T  T </v>
   <v type="logical" >  T  T  T </v>
   <v type="logical" >  T  T  T </v>
   <v type="logical" >  T  T  T </v>
   <v type="logical" >  T  T  T </v>
   <v type="logical" >  T  T  T </v>
   <v type="logical" >  T  T  T </v>
   <v type="logical" >  T  T  T </v>
   <v type="logical" >  T  T  T </v>
   <v type="logical" >  T  T  T </v>
   <v type="logical" >  T  T  T </v>
   <v type="logical" >  T  T  T </v>
   <v type="logical" >  T  T  T </v>
   <v type="logical" >  T  T  T </v>
   <v type="logical" >  T  T  T </v>
   <v type="logical" >  T  T  T </v>
   <v type="logical" >  T  T  T </v>
   <v type="logical" >  T  T  T </v>
   <v type="logical" >  T  T  T </v>
   <v type="logical" >  T  T  T </v>
   <v type="logical" >  T  T  T </v>
   <v type="logical" >  T  T  T </v>
   <v type="logical" >  T  T  T </v>
   <v type="logical" >  T  T  T </v>
   <v type="logical" >  T  T  T </v>
   <v type="logical" >  T  T  T </v>
   <v type="logical" >  T  T  T </v>
   <v type="logical" >  T  T  T </v>
   <v type="logical" >  T  T  T </v>
   <v type="logical" >  T  T  T </v>
   <v type="logical" >  T  T  T </v>
  </varray>
  <nose>
   <v>      -3.00000000       0.00000000       0.00010000       0.00010000 </v>
  </nose>
 </structure>
 <calculation>
  <scstep>
   <time name="diag">    3.76    3.77</time>
   <time name="diis">    8.56    8.59</time>
   <time name="orth">    0.30    0.31</time>
   <time name="total">   14.85   14.90</time>
   <energy>
    <i name="alphaZ">    355.51581029 </i>
    <i name="ewald">  67873.47708066 </i>
    <i name="hartreedc"> -95271.09512152 </i>
    <i name="XCdc">   -102.58766720 </i>
    <i name="pawpsdc">  22415.49745108 </i>
    <i name="pawaedc"> -21132.28767422 </i>
    <i name="eentropy">     -0.09121937 </i>
    <i name="bandstr">   2380.67867171 </i>
    <i name="atom">  28224.09016519 </i>
    <i name="e_fr_energy">   4743.19749662 </i>
    <i name="e_wo_entrp">   4743.28871598 </i>
    <i name="e_0_energy">   4743.22790307 </i>
   </energy>
  </scstep>
  <scstep>
   <time name="diag">    3.75    3.77</time>
   <time name="diis">    8.50    8.53</time>
   <time name="orth">    0.31    0.31</time>
   <time name="total">   12.56   12.61</time>
   <energy>
    <i name="e_fr_energy">   2703.05402990 </i>
    <i name="e_wo_entrp">   2703.08612656 </i>
    <i name="e_0_energy">   2703.06472879 </i>
   </energy>
  </scstep>
  <scstep>
   <time name="diag">    3.74    3.75</time>
   <time name="diis">    8.48    8.51</time>
   <time name="orth">    0.31    0.31</time>
   <time name="total">   12.53   12.57</time>
   <energy>
    <i name="e_fr_energy">   1765.38892397 </i>
    <i name="e_wo_entrp">   1765.37304428 </i>
    <i name="e_0_energy">   1765.38363074 </i>
   </energy>
  </scstep>
  <scstep>
   <time name="diag">    3.75    3.76</time>
   <time name="diis">    8.47    8.50</time>
   <time name="orth">    0.30    0.31</time>
   <time name="total">   12.53   12.57</time>
   <energy>
    <i name="e_fr_energy">   1038.98378313 </i>
    <i name="e_wo_entrp">   1038.73562182 </i>
    <i name="e_0_energy">   1038.90106270 </i>
   </energy>
  </scstep>
  <scstep>
   <time name="diag">    3.73    3.74</time>
   <time name="diis">    8.41    8.44</time>
   <time name="orth">    0.31    0.31</time>
   <time name="total">   12.45   12.49</time>
   <energy>
    <i name="e_fr_energy">    589.25681238 </i>
    <i name="e_wo_entrp">    589.28446525 </i>
    <i name="e_0_energy">    589.26603000 </i>
   </energy>
  </scstep>
  <scstep>
   <time name="diag">    3.72    3.74</time>
   <time name="diis">    8.53    8.58</time>
   <time name="orth">    0.30    0.30</time>
   <time name="total">   12.57   12.63</time>
   <energy>
    <i name="e_fr_energy">    274.76356138 </i>
    <i name="e_wo_entrp">    274.67468050 </i>
    <i name="e_0_energy">    274.73393442 </i>
   </energy>
  </scstep>
  <scstep>
   <time name="diag">    3.73    3.75</time>
   <time name="diis">    8.47    8.54</time>
   <time name="orth">    0.31    0.31</time>
   <time name="total">   12.52   12.60</time>
   <energy>
    <i name="e_fr_energy">    106.73312850 </i>
    <i name="e_wo_entrp">    106.78700188 </i>
    <i name="e_0_energy">    106.75108629 </i>
   </energy>
  </scstep>
  <scstep>
   <time name="diag">    3.72    3.73</time>
   <time name="diis">    8.43    8.49</time>
   <time name="orth">    0.31    0.31</time>
   <time name="total">   12.46   12.54</time>
   <energy>
    <i name="e_fr_energy">    -20.18219232 </i>
    <i name="e_wo_entrp">    -20.18903237 </i>
    <i name="e_0_energy">    -20.18447233 </i>
   </energy>
  </scstep>
  <scstep>
   <time name="diag">    3.66    3.69</time>
   <time name="diis">   21.29   21.41</time>
   <time name="orth">    0.31    0.31</time>
   <time name="total">   25.26   25.41</time>
   <energy>
    <i name="e_fr_energy">   -117.62405833 </i>
    <i name="e_wo_entrp">   -117.55519028 </i>
    <i name="e_0_energy">   -117.60110231 </i>
   </energy>
  </scstep>
  <scstep>
   <time name="diag">    3.65    3.67</time>
   <time name="diis">   24.42   24.51</time>
   <time name="orth">    0.31    0.31</time>
   <time name="total">   28.39   28.49</time>
   <energy>
    <i name="e_fr_energy">   -161.61443588 </i>
    <i name="e_wo_entrp">   -161.48841854 </i>
    <i name="e_0_energy">   -161.57243010 </i>
   </energy>
  </scstep>
  <scstep>
   <time name="diag">    3.71    3.73</time>
   <time name="diis">   25.11   25.20</time>
   <time name="orth">    0.31    0.31</time>
   <time name="total">   29.13   29.24</time>
   <energy>
    <i name="e_fr_energy">   -181.16721234 </i>
    <i name="e_wo_entrp">   -181.09777226 </i>
    <i name="e_0_energy">   -181.14406564 </i>
   </energy>
  </scstep>
  <scstep>
   <time name="diag">    3.70    3.72</time>
   <time name="diis">   24.94   25.03</time>
   <time name="orth">    0.31    0.31</time>
   <time name="total">   30.93   31.04</time>
   <energy>
    <i name="e_fr_energy">   -188.04818710 </i>
    <i name="e_wo_entrp">   -188.13209102 </i>
    <i name="e_0_energy">   -188.07615507 </i>
   </energy>
  </scstep>
  <scstep>
   <time name="diag">    3.71    3.71</time>
   <time name="diis">   17.78   17.84</time>
   <time name="orth">    0.31    0.31</time>
   <time name="total">   25.86   25.95</time>
   <energy>
    <i name="e_fr_energy">   -187.44652693 </i>
    <i name="e_wo_entrp">   -187.39755837 </i>
    <i name="e_0_energy">   -187.43020407 </i>
   </energy>
  </scstep>
  <scstep>
   <time name="diag">    3.72    3.74</time>
   <time name="diis">   17.46   17.52</time>
   <time name="orth">    0.30    0.31</time>
   <time name="total">   25.51   25.60</time>
   <energy>
    <i name="e_fr_energy">   -180.47941689 </i>
    <i name="e_wo_entrp">   -180.43169933 </i>
    <i name="e_0_energy">   -180.46351104 </i>
   </energy>
  </scstep>
  <scstep>
   <time name="diag">    3.66    3.67</time>
   <time name="diis">   19.15   19.22</time>
   <time name="orth">    0.31    0.31</time>
   <time name="total">   27.16   27.25</time>
   <energy>
    <i name="e_fr_energy">   -180.87248498 </i>
    <i name="e_wo_entrp">   -180.73593992 </i>
    <i name="e_0_energy">   -180.82696996 </i>
   </energy>
  </scstep>
  <scstep>
   <time name="diag">    3.63    3.64</time>
   <time name="diis">   20.17   20.24</time>
   <time name="orth">    0.31    0.31</time>
   <time name="total">   28.14   28.26</time>
   <energy>
    <i name="e_fr_energy">   -181.57852819 </i>
    <i name="e_wo_entrp">   -181.49101211 </i>
    <i name="e_0_energy">   -181.54935617 </i>
   </energy>
  </scstep>
  <scstep>
   <time name="diag">    3.65    3.66</time>
   <time name="diis">   19.43   19.50</time>
   <time name="orth">    0.30    0.30</time>
   <time name="total">   27.42   27.53</time>
   <energy>
    <i name="e_fr_energy">   -182.08412501 </i>
    <i name="e_wo_entrp">   -182.01459732 </i>
    <i name="e_0_energy">   -182.06094911 </i>
   </energy>
  </scstep>
  <scstep>
   <time name="diag">    3.66    3.67</time>
   <time name="diis">   19.46   19.53</time>
   <time name="orth">    0.31    0.31</time>
   <time name="total">   27.50   27.60</time>
   <energy>
    <i name="e_fr_energy">   -182.38925707 </i>
    <i name="e_wo_entrp">   -182.35990266 </i>
    <i name="e_0_energy">   -182.37947226 </i>
   </energy>
  </scstep>
  <scstep>
   <time name="diag">    3.64    3.66</time>
   <time name="diis">   18.97   19.04</time>
   <time name="orth">    0.31    0.31</time>
   <time name="total">   27.00   27.10</time>
   <energy>
    <i name="e_fr_energy">   -182.49436064 </i>
    <i name="e_wo_entrp">   -182.55205005 </i>
    <i name="e_0_energy">   -182.51359044 </i>
   </energy>
  </scstep>
  <scstep>
   <time name="diag">    3.64    3.66</time>
   <time name="diis">   19.20   19.27</time>
   <time name="orth">    0.31    0.31</time>
   <time name="total">   27.26   27.36</time>
   <energy>
    <i name="e_fr_energy">   -182.57764938 </i>
    <i name="e_wo_entrp">   -182.69208671 </i>
    <i name="e_0_energy">   -182.61579516 </i>
   </energy>
  </scstep>
  <scstep>
   <time name="diag">    3.62    3.63</time>
   <time name="diis">   17.90   17.96</time>
   <time name="orth">    0.31    0.31</time>
   <time name="total">   25.92   26.05</time>
   <energy>
    <i name="e_fr_energy">   -182.62632952 </i>
    <i name="e_wo_entrp">   -182.75931248 </i>
    <i name="e_0_energy">   -182.67065717 </i>
   </energy>
  </scstep>
  <scstep>
   <time name="diag">    3.61    3.62</time>
   <time name="diis">   17.33   17.39</time>
   <time name="orth">    0.31    0.31</time>
   <time name="total">   25.41   25.50</time>
   <energy>
    <i name="e_fr_energy">   -182.60008379 </i>
    <i name="e_wo_entrp">   -182.75302194 </i>
    <i name="e_0_energy">   -182.65106318 </i>
   </energy>
  </scstep>
  <scstep>
   <time name="diag">    3.63    3.64</time>
   <time name="diis">   16.68   16.74</time>
   <time name="orth">    0.31    0.31</time>
   <time name="total">   24.76   24.85</time>
   <energy>
    <i name="e_fr_energy">   -182.52830244 </i>
    <i name="e_wo_entrp">   -182.66316179 </i>
    <i name="e_0_energy">   -182.57325556 </i>
   </energy>
  </scstep>
  <scstep>
   <time name="diag">    3.62    3.63</time>
   <time name="diis">   17.84   17.90</time>
   <time name="orth">    0.31    0.31</time>
   <time name="total">   25.92   26.01</time>
   <energy>
    <i name="e_fr_energy">   -182.51676317 </i>
    <i name="e_wo_entrp">   -182.66378409 </i>
    <i name="e_0_energy">   -182.56577014 </i>
   </energy>
  </scstep>
  <scstep>
   <time name="diag">    3.61    3.62</time>
   <time name="diis">   17.29   17.36</time>
   <time name="orth">    0.31    0.31</time>
   <time name="total">   25.39   25.47</time>
   <energy>
    <i name="e_fr_energy">   -182.51463601 </i>
    <i name="e_wo_entrp">   -182.67041576 </i>
    <i name="e_0_energy">   -182.56656259 </i>
   </energy>
  </scstep>
  <scstep>
   <time name="diag">    3.60    3.61</time>
   <time name="diis">   16.50   16.56</time>
   <time name="orth">    0.31    0.31</time>
   <time name="total">   24.57   24.66</time>
   <energy>
    <i name="e_fr_energy">   -182.50922920 </i>
    <i name="e_wo_entrp">   -182.66145794 </i>
    <i name="e_0_energy">   -182.55997212 </i>
   </energy>
  </scstep>
  <scstep>
   <time name="diag">    3.66    3.67</time>
   <time name="diis">   16.34   16.40</time>
   <time name="orth">    0.31    0.31</time>
   <time name="total">   24.50   24.58</time>
   <energy>
    <i name="e_fr_energy">   -182.50460575 </i>
    <i name="e_wo_entrp">   -182.64656422 </i>
    <i name="e_0_energy">   -182.55192524 </i>
   </energy>
  </scstep>
  <scstep>
   <time name="diag">    3.58    3.63</time>
   <time name="diis">   16.39   16.44</time>
   <time name="orth">    0.31    0.31</time>
   <time name="total">   24.48   24.60</time>
   <energy>
    <i name="e_fr_energy">   -182.50279232 </i>
    <i name="e_wo_entrp">   -182.64045732 </i>
    <i name="e_0_energy">   -182.54868066 </i>
   </energy>
  </scstep>
  <scstep>
   <time name="diag">    3.62    3.63</time>
   <time name="diis">   13.15   13.20</time>
   <time name="orth">    0.31    0.31</time>
   <time name="total">   21.30   21.37</time>
   <energy>
    <i name="e_fr_energy">   -182.50327948 </i>
    <i name="e_wo_entrp">   -182.64515960 </i>
    <i name="e_0_energy">   -182.55057285 </i>
   </energy>
  </scstep>
  <scstep>
   <time name="diag">    3.61    3.62</time>
   <time name="diis">   12.62   12.66</time>
   <time name="orth">    0.31    0.31</time>
   <time name="total">   20.74   20.84</time>
   <energy>
    <i name="e_fr_energy">   -182.50517758 </i>
    <i name="e_wo_entrp">   -182.65142003 </i>
    <i name="e_0_energy">   -182.55392507 </i>
   </energy>
  </scstep>
  <scstep>
   <time name="diag">    3.59    3.61</time>
   <time name="diis">   10.47   10.50</time>
   <time name="orth">    0.31    0.31</time>
   <time name="total">   18.63   18.69</time>
   <energy>
    <i name="e_fr_energy">   -182.50669870 </i>
    <i name="e_wo_entrp">   -182.65133569 </i>
    <i name="e_0_energy">   -182.55491103 </i>
   </energy>
  </scstep>
  <scstep>
   <time name="diag">    3.63    3.64</time>
   <time name="diis">   10.37   10.41</time>
   <time name="orth">    0.31    0.31</time>
   <time name="total">   18.58   18.64</time>
   <energy>
    <i name="e_fr_energy">   -182.50889965 </i>
    <i name="e_wo_entrp">   -182.65136260 </i>
    <i name="e_0_energy">   -182.55638730 </i>
   </energy>
  </scstep>
  <scstep>
   <time name="diag">    3.63    3.65</time>
   <time name="diis">   10.60   10.64</time>
   <time name="orth">    0.31    0.31</time>
   <time name="total">   18.84   18.91</time>
   <energy>
    <i name="e_fr_energy">   -182.51164031 </i>
    <i name="e_wo_entrp">   -182.65376153 </i>
    <i name="e_0_energy">   -182.55901405 </i>
   </energy>
  </scstep>
  <scstep>
   <time name="diag">    3.67    3.69</time>
   <time name="diis">   11.62   11.66</time>
   <time name="orth">    0.30    0.31</time>
   <time name="total">   19.85   19.93</time>
   <energy>
    <i name="e_fr_energy">   -182.51573131 </i>
    <i name="e_wo_entrp">   -182.65870476 </i>
    <i name="e_0_energy">   -182.56338913 </i>
   </energy>
  </scstep>
  <scstep>
   <time name="diag">    3.69    3.70</time>
   <time name="diis">   10.78   10.81</time>
   <time name="orth">    0.31    0.31</time>
   <time name="total">   19.05   19.12</time>
   <energy>
    <i name="e_fr_energy">   -182.51695998 </i>
    <i name="e_wo_entrp">   -182.65952981 </i>
    <i name="e_0_energy">   -182.56448325 </i>
   </energy>
  </scstep>
  <scstep>
   <time name="diag">    3.63    3.64</time>
   <time name="diis">   10.61   10.65</time>
   <time name="orth">    0.30    0.30</time>
   <time name="total">   18.87   18.93</time>
   <energy>
    <i name="e_fr_energy">   -182.51838668 </i>
    <i name="e_wo_entrp">   -182.66159657 </i>
    <i name="e_0_energy">   -182.56612331 </i>
   </energy>
  </scstep>
  <scstep>
   <time name="diag">    3.60    3.61</time>
   <time name="diis">    9.86    9.90</time>
   <time name="orth">    0.30    0.30</time>
   <time name="total">   18.10   18.16</time>
   <energy>
    <i name="e_fr_energy">   -182.51889090 </i>
    <i name="e_wo_entrp">   -182.66225097 </i>
    <i name="e_0_energy">   -182.56667759 </i>
   </energy>
  </scstep>
  <scstep>
   <time name="diag">    3.63    3.64</time>
   <time name="diis">    9.39    9.42</time>
   <time name="orth">    0.30    0.30</time>
   <time name="total">   17.67   17.73</time>
   <energy>
    <i name="e_fr_energy">   -182.51911903 </i>
    <i name="e_wo_entrp">   -182.66231098 </i>
    <i name="e_0_energy">   -182.56684968 </i>
   </energy>
  </scstep>
  <scstep>
   <time name="diag">    3.63    3.64</time>
   <time name="diis">    8.45    8.48</time>
   <time name="orth">    0.31    0.31</time>
   <time name="total">   14.61   14.66</time>
   <energy>
    <i name="alphaZ">    355.51581029 </i>
    <i name="ewald">  67873.47708066 </i>
    <i name="hartreedc"> -95159.23806131 </i>
    <i name="XCdc">   -112.33502939 </i>
    <i name="pawpsdc">  23062.29574011 </i>
    <i name="pawaedc"> -21853.90095397 </i>
    <i name="eentropy">      0.14298152 </i>
    <i name="bandstr">  -2572.56692807 </i>
    <i name="atom">  28224.09016519 </i>
    <i name="e_fr_energy">   -182.51919497 </i>
    <i name="e_wo_entrp">   -182.66217650 </i>
    <i name="e_0_energy">   -182.56685548 </i>
   </energy>
  </scstep>
  <structure>
   <crystal>
    <varray name="basis" >
     <v>      18.00000000       0.00000000       0.00000000 </v>
     <v>       0.00000000      18.00000000       0.00000000 </v>
     <v>       0.00000000       0.00000000      18.00000000 </v>
    </varray>
    <i name="volume">   5832.00000000 </i>
    <varray name="rec_basis" >
     <v>       0.05555556       0.00000000       0.00000000 </v>
     <v>       0.00000000       0.05555556       0.00000000 </v>
     <v>       0.00000000       0.00000000       0.05555556 </v>
    </varray>
   </crystal>
   <varray name="positions" >
    <v>       0.72415987       0.57367709       0.49999884 </v>
    <v>       0.57367748       0.72416476       0.49999896 </v>
    <v>       0.27584718       0.57366508       0.50000102 </v>
    <v>       0.42633392       0.72415229       0.50000050 </v>
    <v>       0.27584506       0.42633293       0.50000053 </v>
    <v>       0.42633278       0.27584919       0.49999961 </v>
    <v>       0.72415965       0.42632488       0.49999934 </v>
    <v>       0.57367347       0.27583777       0.49999958 </v>
    <v>       0.66139785       0.50000291       0.61403403 </v>
    <v>       0.33859673       0.49999821       0.61404334 </v>
    <v>       0.50000485       0.66140186       0.61404044 </v>
    <v>       0.49999876       0.33859700       0.61404026 </v>
    <v>       0.64886196       0.64886231       0.60622248 </v>
    <v>       0.35115009       0.64885073       0.60622329 </v>
    <v>       0.35114542       0.35114654       0.60622383 </v>
    <v>       0.64885517       0.35114461       0.60622041 </v>
    <v>       0.66139838       0.49999881       0.38596471 </v>
    <v>       0.33859854       0.49999905       0.38596026 </v>
    <v>       0.50000385       0.66140334       0.38595872 </v>
    <v>       0.50000369       0.33859956       0.38596150 </v>
    <v>       0.64886010       0.64885942       0.39377423 </v>
    <v>       0.35115184       0.64884871       0.39377816 </v>
    <v>       0.35115095       0.35115082       0.39377660 </v>
    <v>       0.64885984       0.35114035       0.39377625 </v>
    <v>       0.57516716       0.57516805       0.71035430 </v>
    <v>       0.42483370       0.57516629       0.71035524 </v>
    <v>       0.42482849       0.42483027       0.71035654 </v>
    <v>       0.57516215       0.42483732       0.71034915 </v>
    <v>       0.57516540       0.57516346       0.28964734 </v>
    <v>       0.42483436       0.57516557       0.28964991 </v>
    <v>       0.42483466       0.42483341       0.28964981 </v>
    <v>       0.57516653       0.42483369       0.28964740 </v>
    <v>       0.49998814       0.49999905       0.60489762 </v>
    <v>       0.42563785       0.42564770       0.49999960 </v>
    <v>       0.42564235       0.57434859       0.49999975 </v>
    <v>       0.49999163       0.49999846       0.39510135 </v>
    <v>       0.57434040       0.57435174       0.49999737 </v>
    <v>       0.57433976       0.42564820       0.49999771 </v>
   </varray>
  </structure>
  <varray name="forces" >
   <v>      -0.00221319      -0.00125057      -0.00008738 </v>
   <v>      -0.00043732      -0.00215089      -0.00008059 </v>
   <v>      -0.00007050       0.00117427       0.00004582 </v>
   <v>       0.00035936      -0.00063364       0.00000282 </v>
   <v>      -0.00046715      -0.00111606      -0.00003801 </v>
   <v>       0.00004962      -0.00006808      -0.00003856 </v>
   <v>      -0.00207066       0.00125523       0.00012615 </v>
   <v>       0.00001768       0.00180116       0.00005374 </v>
   <v>      -0.00168161       0.00002097      -0.00059566 </v>
   <v>       0.00079514       0.00036554       0.00034559 </v>
   <v>       0.00007670      -0.00132353      -0.00053878 </v>
   <v>       0.00053284       0.00132100      -0.00015710 </v>
   <v>      -0.00103335      -0.00125719      -0.00020919 </v>
   <v>      -0.00023840       0.00045251       0.00022023 </v>
   <v>      -0.00067408      -0.00090650       0.00038678 </v>
   <v>      -0.00093576       0.00104157      -0.00015890 </v>
   <v>      -0.00158586       0.00024645       0.00046203 </v>
   <v>       0.00030407       0.00014278      -0.00053466 </v>
   <v>       0.00041011      -0.00132505       0.00050589 </v>
   <v>       0.00038866       0.00095127       0.00014666 </v>
   <v>      -0.00106212      -0.00120872       0.00031536 </v>
   <v>      -0.00055806       0.00081328      -0.00005306 </v>
   <v>      -0.00088735      -0.00108531      -0.00031499 </v>
   <v>      -0.00098557       0.00102305       0.00033406 </v>
   <v>       0.00012563      -0.00011486      -0.00073355 </v>
   <v>       0.00054586      -0.00043491       0.00032415 </v>
   <v>       0.00073459       0.00047812       0.00073192 </v>
   <v>      -0.00000793       0.00006132      -0.00041506 </v>
   <v>       0.00027324       0.00015588       0.00041404 </v>
   <v>       0.00040489       0.00005289      -0.00115593 </v>
   <v>       0.00025128       0.00006377      -0.00136371 </v>
   <v>       0.00035462      -0.00010080       0.00018003 </v>
   <v>       0.00110087       0.00013843       0.00032282 </v>
   <v>       0.00250515       0.00145671       0.00028556 </v>
   <v>       0.00170465      -0.00064870       0.00026883 </v>
   <v>       0.00105933       0.00023699       0.00021905 </v>
   <v>       0.00158627       0.00048552       0.00039390 </v>
   <v>       0.00132836      -0.00011391       0.00038970 </v>
  </varray>
  <energy>
   <i name="e_fr_energy">   -182.51919497 </i>
   <i name="e_wo_entrp">   -182.56685548 </i>
   <i name="e_0_energy">      0.14298152 </i>
  </energy>
  <time name="totalsc">  852.43  855.76</time>
  <eigenvalues>
   <array>
    <dimension dim="1">band</dimension>
    <dimension dim="2">kpoint</dimension>
    <dimension dim="3">spin</dimension>
    <field>eigene</field>
    <field>occ</field>
    <set>
     <set comment="spin 1">
      <set comment="kpoint 1">
       <r>  -11.4617    1.0000 </r>
       <r>  -10.6147    1.0000 </r>
       <r>  -10.6144    1.0000 </r>
       <r>  -10.6143    1.0000 </r>
       <r>   -9.9448    1.0000 </r>
       <r>   -9.9447    1.0000 </r>
       <r>   -9.9439    1.0000 </r>
       <r>   -9.7885    1.0000 </r>
       <r>   -9.6579    1.0000 </r>
       <r>   -9.5882    1.0000 </r>
       <r>   -9.5882    1.0000 </r>
       <r>   -9.5876    1.0000 </r>
       <r>   -9.5539    1.0000 </r>
       <r>   -9.5504    1.0000 </r>
       <r>   -9.3495    1.0000 </r>
       <r>   -9.3484    1.0000 </r>
       <r>   -9.1986    1.0000 </r>
       <r>   -9.1985    1.0000 </r>
       <r>   -9.1981    1.0000 </r>
       <r>   -9.1626    1.0000 </r>
       <r>   -9.1408    1.0000 </r>
       <r>   -9.1404    1.0000 </r>
       <r>   -9.1404    1.0000 </r>
       <r>   -9.1104    1.0000 </r>
       <r>   -9.1104    1.0000 </r>
       <r>   -9.1099    1.0000 </r>
       <r>   -8.9939    1.0000 </r>
       <r>   -8.9934    1.0000 </r>
       <r>   -8.9934    1.0000 </r>
       <r>   -8.8896    1.0000 </r>
       <r>   -8.8889    1.0000 </r>
       <r>   -8.7863    1.0000 </r>
       <r>   -8.7862    1.0000 </r>
       <r>   -8.7862    1.0000 </r>
       <r>   -8.7757    1.0000 </r>
       <r>   -8.7757    1.0000 </r>
       <r>   -8.7743    1.0000 </r>
       <r>   -8.7561    1.0000 </r>
       <r>   -8.7549    1.0000 </r>
       <r>   -8.7549    1.0000 </r>
       <r>   -8.6385    1.0000 </r>
       <r>   -8.5218    1.0000 </r>
       <r>   -8.5199    1.0000 </r>
       <r>   -8.3552    1.0000 </r>
       <r>   -8.2176    1.0000 </r>
       <r>   -8.2176    1.0000 </r>
       <r>   -8.2164    1.0000 </r>
       <r>   -8.0366    1.0000 </r>
       <r>   -8.0357    1.0000 </r>
       <r>   -8.0357    1.0000 </r>
       <r>   -7.9260    1.0000 </r>
       <r>   -7.9252    1.0000 </r>
       <r>   -7.8633    1.0000 </r>
       <r>   -7.8633    1.0000 </r>
       <r>   -7.8629    1.0000 </r>
       <r>   -7.8396    1.0000 </r>
       <r>   -7.8372    1.0000 </r>
       <r>   -7.8372    1.0000 </r>
       <r>   -7.7598    1.0000 </r>
       <r>   -7.7547    1.0000 </r>
       <r>   -7.7433    1.0000 </r>
       <r>   -7.7432    1.0000 </r>
       <r>   -7.7394    1.0000 </r>
       <r>   -7.7386    1.0000 </r>
       <r>   -7.7381    1.0000 </r>
       <r>   -7.7381    1.0000 </r>
       <r>   -7.7288    1.0000 </r>
       <r>   -7.5751    1.0000 </r>
       <r>   -7.5751    1.0000 </r>
       <r>   -7.5709    1.0000 </r>
       <r>   -7.5612    1.0000 </r>
       <r>   -7.5592    1.0000 </r>
       <r>   -7.5591    1.0000 </r>
       <r>   -7.4887    1.0000 </r>
       <r>   -7.3290    1.0000 </r>
       <r>   -7.3201    1.0000 </r>
       <r>   -7.3199    1.0000 </r>
       <r>   -7.1535    1.0000 </r>
       <r>   -7.1525    1.0000 </r>
       <r>   -7.0987    1.0000 </r>
       <r>   -7.0986    1.0000 </r>
       <r>   -7.0970    1.0000 </r>
       <r>   -6.9219    1.0000 </r>
       <r>   -6.9218    1.0000 </r>
       <r>   -6.9167    1.0000 </r>
       <r>   -6.8921    1.0000 </r>
       <r>   -6.8879    1.0000 </r>
       <r>   -6.8767    1.0000 </r>
       <r>   -6.8766    1.0000 </r>
       <r>   -6.8742    1.0000 </r>
       <r>   -6.7019    1.0000 </r>
       <r>   -6.6999    1.0000 </r>
       <r>   -6.6998    1.0000 </r>
       <r>   -6.5211    1.0000 </r>
       <r>   -6.5185    1.0000 </r>
       <r>   -6.5184    1.0000 </r>
       <r>   -6.4590    1.0000 </r>
       <r>   -6.4590    1.0000 </r>
       <r>   -6.4577    1.0000 </r>
       <r>   -6.4018    1.0000 </r>
       <r>   -6.4016    1.0000 </r>
       <r>   -6.4016    1.0000 </r>
       <r>   -6.3611    1.0000 </r>
       <r>   -6.3611    1.0000 </r>
       <r>   -6.3601    1.0000 </r>
       <r>   -6.3501    1.0000 </r>
       <r>   -6.3498    1.0000 </r>
       <r>   -6.3146    1.0000 </r>
       <r>   -6.1530    1.0000 </r>
       <r>   -6.1530    1.0000 </r>
       <r>   -6.1503    1.0000 </r>
       <r>   -6.1343    1.0000 </r>
       <r>   -6.1055    1.0000 </r>
       <r>   -6.1037    1.0000 </r>
       <r>   -6.0985    1.0000 </r>
       <r>   -6.0984    1.0000 </r>
       <r>   -6.0982    1.0000 </r>
       <r>   -6.0521    1.0000 </r>
       <r>   -6.0520    1.0000 </r>
       <r>   -6.0505    1.0000 </r>
       <r>   -5.6015    1.0000 </r>
       <r>   -5.6010    1.0000 </r>
       <r>   -5.6010    1.0000 </r>
       <r>   -5.4946    1.0000 </r>
       <r>   -5.4944    1.0000 </r>
       <r>   -5.4267    1.0000 </r>
       <r>   -5.4267    1.0000 </r>
       <r>   -5.4261    1.0000 </r>
       <r>   -5.3944    1.0000 </r>
       <r>   -5.3893    1.0000 </r>
       <r>   -5.3706    1.0000 </r>
       <r>   -5.3700    1.0000 </r>
       <r>   -5.3700    1.0000 </r>
       <r>   -5.3454    1.0000 </r>
       <r>   -5.3454    1.0000 </r>
       <r>   -5.3439    1.0000 </r>
       <r>   -5.3169    1.0000 </r>
       <r>   -5.3168    1.0000 </r>
       <r>   -5.2723    1.0000 </r>
       <r>   -5.2723    1.0000 </r>
       <r>   -5.2708    1.0000 </r>
       <r>   -5.0156    1.0000 </r>
       <r>   -5.0032    1.0000 </r>
       <r>   -5.0022    1.0000 </r>
       <r>   -5.0022    1.0000 </r>
       <r>   -4.9550    1.0000 </r>
       <r>   -4.9543    1.0000 </r>
       <r>   -4.9411    1.0000 </r>
       <r>   -4.9401    1.0000 </r>
       <r>   -4.9401    1.0000 </r>
       <r>   -4.9123    1.0000 </r>
       <r>   -4.9114    1.0000 </r>
       <r>   -4.9113    1.0000 </r>
       <r>   -4.8902    1.0000 </r>
       <r>   -4.8900    1.0000 </r>
       <r>   -4.8899    1.0000 </r>
       <r>   -4.8245    1.0000 </r>
       <r>   -4.8245    1.0000 </r>
       <r>   -4.8240    1.0000 </r>
       <r>   -4.7219    1.0005 </r>
       <r>   -4.7208    1.0005 </r>
       <r>   -4.6228    1.0044 </r>
       <r>   -4.6212    1.0045 </r>
       <r>   -4.6212    1.0045 </r>
       <r>   -4.5732    1.0100 </r>
       <r>   -4.5710    1.0104 </r>
       <r>   -4.5659    1.0112 </r>
       <r>   -4.5658    1.0112 </r>
       <r>   -4.5652    1.0113 </r>
       <r>   -4.5606    1.0121 </r>
       <r>   -4.5322    1.0176 </r>
       <r>   -4.5312    1.0178 </r>
       <r>   -4.5131    1.0218 </r>
       <r>   -4.5025    1.0243 </r>
       <r>   -4.4989    1.0251 </r>
       <r>   -4.4988    1.0251 </r>
       <r>   -4.4886    1.0275 </r>
       <r>   -4.4883    1.0275 </r>
       <r>   -4.4883    1.0275 </r>
       <r>   -4.4556    1.0337 </r>
       <r>   -4.4556    1.0337 </r>
       <r>   -4.4550    1.0338 </r>
       <r>   -4.4182    1.0346 </r>
       <r>   -4.4176    1.0345 </r>
       <r>   -4.4176    1.0345 </r>
       <r>   -4.3606    1.0047 </r>
       <r>   -4.2511    0.7536 </r>
       <r>   -4.2510    0.7534 </r>
       <r>   -4.2480    0.7427 </r>
       <r>   -4.1359    0.2886 </r>
       <r>   -4.1027    0.1737 </r>
       <r>   -4.0990    0.1623 </r>
       <r>   -4.0989    0.1620 </r>
       <r>   -4.0895    0.1347 </r>
       <r>   -4.0895    0.1346 </r>
       <r>   -4.0874    0.1290 </r>
       <r>   -4.0832    0.1177 </r>
       <r>   -4.0527    0.0491 </r>
       <r>   -3.9968   -0.0198 </r>
       <r>   -3.9867   -0.0257 </r>
       <r>   -3.9858   -0.0261 </r>
       <r>   -3.8090   -0.0111 </r>
       <r>   -3.8079   -0.0109 </r>
       <r>   -3.8078   -0.0109 </r>
       <r>   -3.6546   -0.0005 </r>
       <r>   -3.6546   -0.0005 </r>
       <r>   -3.6528   -0.0005 </r>
       <r>   -2.5276    0.0000 </r>
       <r>   -2.3570    0.0000 </r>
       <r>   -2.3570    0.0000 </r>
       <r>   -2.3563    0.0000 </r>
       <r>   -2.2867    0.0000 </r>
       <r>   -2.2834    0.0000 </r>
       <r>   -2.2833    0.0000 </r>
       <r>   -2.2360    0.0000 </r>
       <r>   -2.2337    0.0000 </r>
       <r>   -2.2337    0.0000 </r>
       <r>   -2.1874    0.0000 </r>
       <r>   -2.1851    0.0000 </r>
       <r>   -1.4125    0.0000 </r>
       <r>   -0.9461    0.0000 </r>
       <r>   -0.9317    0.0000 </r>
       <r>   -0.9309    0.0000 </r>
       <r>   -0.5548    0.0000 </r>
       <r>   -0.5234    0.0000 </r>
       <r>   -0.3657    0.0000 </r>
       <r>   -0.3576    0.0000 </r>
       <r>   -0.3349    0.0000 </r>
      </set>
     </set>
    </set>
   </array>
  </eigenvalues>
  <separator name="orbital magnetization" >
   <v name="MAGDIPOLOUT">      0.00000000      0.00000000      0.00000000</v>
  </separator>
  <dos>
   <i name="efermi">     -4.18774865 </i>
   <total>
    <array>
     <dimension dim="1">gridpoints</dimension>
     <dimension dim="2">spin</dimension>
     <field>energy</field>
     <field>total</field>
     <field>integrated</field>
     <set>
      <set comment="spin 1">
       <r>   -13.4617     0.0000     0.0000 </r>
       <r>   -13.4113     0.0000     0.0000 </r>
       <r>   -13.3608     0.0000     0.0000 </r>
       <r>   -13.3104     0.0000     0.0000 </r>
       <r>   -13.2600     0.0000     0.0000 </r>
       <r>   -13.2096     0.0000     0.0000 </r>
       <r>   -13.1591     0.0000     0.0000 </r>
       <r>   -13.1087     0.0000     0.0000 </r>
       <r>   -13.0583     0.0000     0.0000 </r>
       <r>   -13.0079     0.0000     0.0000 </r>
       <r>   -12.9575     0.0000     0.0000 </r>
       <r>   -12.9070     0.0000     0.0000 </r>
       <r>   -12.8566     0.0000     0.0000 </r>
       <r>   -12.8062     0.0000     0.0000 </r>
       <r>   -12.7558     0.0000     0.0000 </r>
       <r>   -12.7053     0.0000     0.0000 </r>
       <r>   -12.6549     0.0000     0.0000 </r>
       <r>   -12.6045     0.0000     0.0000 </r>
       <r>   -12.5541     0.0000     0.0000 </r>
       <r>   -12.5036     0.0000     0.0000 </r>
       <r>   -12.4532     0.0000     0.0000 </r>
       <r>   -12.4028     0.0000     0.0000 </r>
       <r>   -12.3524     0.0000     0.0000 </r>
       <r>   -12.3020     0.0000     0.0000 </r>
       <r>   -12.2515     0.0000     0.0000 </r>
       <r>   -12.2011     0.0000     0.0000 </r>
       <r>   -12.1507    -0.0002     0.0000 </r>
       <r>   -12.1003    -0.0010    -0.0001 </r>
       <r>   -12.0498    -0.0039    -0.0003 </r>
       <r>   -11.9994    -0.0138    -0.0010 </r>
       <r>   -11.9490    -0.0417    -0.0031 </r>
       <r>   -11.8986    -0.1064    -0.0084 </r>
       <r>   -11.8482    -0.2250    -0.0198 </r>
       <r>   -11.7977    -0.3780    -0.0388 </r>
       <r>   -11.7473    -0.4475    -0.0614 </r>
       <r>   -11.6969    -0.1733    -0.0701 </r>
       <r>   -11.6465     0.7832    -0.0306 </r>
       <r>   -11.5960     2.6053     0.1007 </r>
       <r>   -11.5456     5.0289     0.3543 </r>
       <r>   -11.4952     7.2678     0.7208 </r>
       <r>   -11.4448     8.3649     1.1425 </r>
       <r>   -11.3943     7.7952     1.5356 </r>
       <r>   -11.3439     5.8352     1.8298 </r>
       <r>   -11.2935     3.3654     1.9995 </r>
       <r>   -11.2431     1.2853     2.0643 </r>
       <r>   -11.1927     0.0359     2.0661 </r>
       <r>   -11.1422    -0.4640     2.0427 </r>
       <r>   -11.0918    -0.5726     2.0139 </r>
       <r>   -11.0414    -0.6509     1.9810 </r>
       <r>   -10.9910    -0.9027     1.9355 </r>
       <r>   -10.9405    -1.2716     1.8714 </r>
       <r>   -10.8901    -1.3136     1.8052 </r>
       <r>   -10.8397    -0.1501     1.7976 </r>
       <r>   -10.7893     3.2256     1.9602 </r>
       <r>   -10.7389     9.1672     2.4225 </r>
       <r>   -10.6884    16.5550     3.2572 </r>
       <r>   -10.6380    22.8061     4.4072 </r>
       <r>   -10.5876    25.1604     5.6758 </r>
       <r>   -10.5372    22.4747     6.8091 </r>
       <r>   -10.4867    16.0264     7.6172 </r>
       <r>   -10.4363     8.5895     8.0503 </r>
       <r>   -10.3859     2.6207     8.1824 </r>
       <r>   -10.3355    -0.9283     8.1356 </r>
       <r>   -10.2850    -2.4461     8.0123 </r>
       <r>   -10.2346    -2.6385     7.8792 </r>
       <r>   -10.1842    -1.6255     7.7973 </r>
       <r>   -10.1338     1.1825     7.8569 </r>
       <r>   -10.0834     6.3653     8.1779 </r>
       <r>   -10.0329    13.4653     8.8568 </r>
       <r>    -9.9825    20.5761     9.8943 </r>
       <r>    -9.9321    25.2169    11.1658 </r>
       <r>    -9.8817    26.1077    12.4822 </r>
       <r>    -9.8312    24.4478    13.7150 </r>
       <r>    -9.7808    23.4382    14.8968 </r>
       <r>    -9.7304    26.1157    16.2136 </r>
       <r>    -9.6800    32.9633    17.8757 </r>
       <r>    -9.6296    41.1195    19.9491 </r>
       <r>    -9.5791    46.0381    22.2704 </r>
       <r>    -9.5287    44.6385    24.5212 </r>
       <r>    -9.4783    37.6622    26.4203 </r>
       <r>    -9.4279    29.4691    27.9062 </r>
       <r>    -9.3774    25.5919    29.1966 </r>
       <r>    -9.3270    29.8799    30.7032 </r>
       <r>    -9.2766    42.6813    32.8553 </r>
       <r>    -9.2262    60.4454    35.9031 </r>
       <r>    -9.1757    76.8900    39.7801 </r>
       <r>    -9.1253    85.8504    44.1090 </r>
       <r>    -9.0749    84.7856    48.3841 </r>
       <r>    -9.0245    76.6137    52.2471 </r>
       <r>    -8.9741    68.1446    55.6832 </r>
       <r>    -8.9236    65.8021    59.0011 </r>
       <r>    -8.8732    71.3871    62.6006 </r>
       <r>    -8.8228    80.7448    66.6720 </r>
       <r>    -8.7724    86.4418    71.0306 </r>
       <r>    -8.7219    82.8105    75.2062 </r>
       <r>    -8.6715    69.6834    78.7198 </r>
       <r>    -8.6211    51.9507    81.3393 </r>
       <r>    -8.5707    35.6699    83.1379 </r>
       <r>    -8.5203    24.3693    84.3666 </r>
       <r>    -8.4698    18.3420    85.2915 </r>
       <r>    -8.4194    16.3627    86.1165 </r>
       <r>    -8.3690    17.3151    86.9896 </r>
       <r>    -8.3186    20.3380    88.0151 </r>
       <r>    -8.2681    24.2568    89.2382 </r>
       <r>    -8.2177    27.6733    90.6336 </r>
       <r>    -8.1673    29.9174    92.1421 </r>
       <r>    -8.1169    31.8561    93.7484 </r>
       <r>    -8.0664    35.6888    95.5479 </r>
       <r>    -8.0160    43.8535    97.7591 </r>
       <r>    -7.9656    57.7060   100.6688 </r>
       <r>    -7.9152    76.4376   104.5230 </r>
       <r>    -7.8648    96.6053   109.3941 </r>
       <r>    -7.8143   112.9257   115.0881 </r>
       <r>    -7.7639   120.5913   121.1687 </r>
       <r>    -7.7135   117.9039   127.1137 </r>
       <r>    -7.6631   107.0526   132.5116 </r>
       <r>    -7.6126    92.1890   137.1600 </r>
       <r>    -7.5622    76.6364   141.0242 </r>
       <r>    -7.5118    61.8738   144.1441 </r>
       <r>    -7.4614    48.6498   146.5971 </r>
       <r>    -7.4110    38.1572   148.5211 </r>
       <r>    -7.3605    31.7209   150.1206 </r>
       <r>    -7.3101    29.7499   151.6206 </r>
       <r>    -7.2597    31.4108   153.2044 </r>
       <r>    -7.2093    35.2060   154.9796 </r>
       <r>    -7.1588    39.7626   156.9846 </r>
       <r>    -7.1084    44.4838   159.2276 </r>
       <r>    -7.0580    49.8215   161.7397 </r>
       <r>    -7.0076    56.5399   164.5906 </r>
       <r>    -6.9571    64.0473   167.8200 </r>
       <r>    -6.9067    69.5145   171.3252 </r>
       <r>    -6.8563    69.3989   174.8244 </r>
       <r>    -6.8059    62.3895   177.9703 </r>
       <r>    -6.7555    50.9383   180.5387 </r>
       <r>    -6.7050    40.0607   182.5587 </r>
       <r>    -6.6546    34.8424   184.3155 </r>
       <r>    -6.6042    38.5121   186.2574 </r>
       <r>    -6.5538    51.3454   188.8464 </r>
       <r>    -6.5033    70.0255   192.3773 </r>
       <r>    -6.4529    88.1240   196.8207 </r>
       <r>    -6.4025    98.7678   201.8009 </r>
       <r>    -6.3521    98.8075   206.7830 </r>
       <r>    -6.3017    91.4611   211.3947 </r>
       <r>    -6.2512    84.4341   215.6521 </r>
       <r>    -6.2008    83.9623   219.8857 </r>
       <r>    -6.1504    89.3996   224.3935 </r>
       <r>    -6.1000    93.3450   229.1002 </r>
       <r>    -6.0495    87.5693   233.5157 </r>
       <r>    -5.9991    69.5734   237.0238 </r>
       <r>    -5.9487    44.2275   239.2539 </r>
       <r>    -5.8983    19.8740   240.2560 </r>
       <r>    -5.8478     3.0448   240.4095 </r>
       <r>    -5.7974    -4.0370   240.2059 </r>
       <r>    -5.7470    -2.5522   240.0772 </r>
       <r>    -5.6966     5.1532   240.3371 </r>
       <r>    -5.6462    17.2735   241.2081 </r>
       <r>    -5.5957    33.2425   242.8842 </r>
       <r>    -5.5453    53.4001   245.5768 </r>
       <r>    -5.4949    77.4404   249.4816 </r>
       <r>    -5.4445   102.2323   254.6364 </r>
       <r>    -5.3940   121.0365   260.7394 </r>
       <r>    -5.3436   125.9995   267.0926 </r>
       <r>    -5.2932   113.1629   272.7986 </r>
       <r>    -5.2428    86.4486   277.1576 </r>
       <r>    -5.1924    57.2061   280.0421 </r>
       <r>    -5.1419    39.0245   282.0098 </r>
       <r>    -5.0915    40.7598   284.0650 </r>
       <r>    -5.0411    61.7371   287.1780 </r>
       <r>    -4.9907    91.8111   291.8073 </r>
       <r>    -4.9402   116.5039   297.6818 </r>
       <r>    -4.8898   124.7289   303.9710 </r>
       <r>    -4.8394   114.8640   309.7627 </r>
       <r>    -4.7890    95.5831   314.5823 </r>
       <r>    -4.7385    80.9231   318.6626 </r>
       <r>    -4.6881    82.4495   322.8200 </r>
       <r>    -4.6377   102.8061   328.0037 </r>
       <r>    -4.5873   133.9838   334.7596 </r>
       <r>    -4.5369   161.2748   342.8915 </r>
       <r>    -4.4864   171.0140   351.5145 </r>
       <r>    -4.4360   157.8963   359.4760 </r>
       <r>    -4.3856   127.5640   365.9082 </r>
       <r>    -4.3352    93.0584   370.6004 </r>
       <r>    -4.2847    67.7086   374.0145 </r>
       <r>    -4.2343    58.8451   376.9816 </r>
       <r>    -4.1839    65.3077   380.2746 </r>
       <r>    -4.1335    79.1083   384.2634 </r>
       <r>    -4.0831    89.9463   388.7988 </r>
       <r>    -4.0326    90.5032   393.3622 </r>
       <r>    -3.9822    79.9072   397.3913 </r>
       <r>    -3.9318    63.3099   400.5836 </r>
       <r>    -3.8814    47.9288   403.0003 </r>
       <r>    -3.8309    38.5180   404.9425 </r>
       <r>    -3.7805    35.3508   406.7250 </r>
       <r>    -3.7301    35.3563   408.5077 </r>
       <r>    -3.6797    34.7176   410.2583 </r>
       <r>    -3.6292    30.9991   411.8213 </r>
       <r>    -3.5788    23.9923   413.0311 </r>
       <r>    -3.5284    15.3472   413.8049 </r>
       <r>    -3.4780     7.3952   414.1778 </r>
       <r>    -3.4276     1.8355   414.2704 </r>
       <r>    -3.3771    -0.9492   414.2225 </r>
       <r>    -3.3267    -1.6603   414.1388 </r>
       <r>    -3.2763    -1.3465   414.0709 </r>
       <r>    -3.2259    -0.8002   414.0306 </r>
       <r>    -3.1754    -0.3832   414.0112 </r>
       <r>    -3.1250    -0.1556   414.0034 </r>
       <r>    -3.0746    -0.0629   414.0002 </r>
       <r>    -3.0242    -0.0508   413.9977 </r>
       <r>    -2.9738    -0.1006   413.9926 </r>
       <r>    -2.9233    -0.2242   413.9813 </r>
       <r>    -2.8729    -0.4340   413.9594 </r>
       <r>    -2.8225    -0.6971   413.9242 </r>
       <r>    -2.7721    -0.8904   413.8794 </r>
       <r>    -2.7216    -0.7993   413.8391 </r>
       <r>    -2.6712    -0.1593   413.8310 </r>
       <r>    -2.6208     1.3643   413.8998 </r>
       <r>    -2.5704     4.3798   414.1207 </r>
       <r>    -2.5199    10.0239   414.6261 </r>
       <r>    -2.4695    19.7621   415.6225 </r>
       <r>    -2.4191    34.3188   417.3530 </r>
       <r>    -2.3687    52.1634   419.9832 </r>
       <r>    -2.3183    68.8940   423.4570 </r>
       <r>    -2.2678    78.6558   427.4231 </r>
       <r>    -2.2174    77.1751   431.3145 </r>
       <r>    -2.1670    64.4005   434.5617 </r>
       <r>    -2.1166    44.7303   436.8171 </r>
       <r>    -2.0661    24.5861   438.0568 </r>
       <r>    -2.0157     9.1100   438.5162 </r>
       <r>    -1.9653     0.2152   438.5270 </r>
       <r>    -1.9149    -3.1385   438.3688 </r>
       <r>    -1.8645    -3.3011   438.2023 </r>
       <r>    -1.8140    -2.3691   438.0829 </r>
       <r>    -1.7636    -1.4967   438.0074 </r>
       <r>    -1.7132    -0.9615   437.9589 </r>
       <r>    -1.6628    -0.5036   437.9335 </r>
       <r>    -1.6123     0.3469   437.9510 </r>
       <r>    -1.5619     1.9550   438.0496 </r>
       <r>    -1.5115     4.2612   438.2645 </r>
       <r>    -1.4611     6.6220   438.5984 </r>
       <r>    -1.4106     8.0395   439.0037 </r>
       <r>    -1.3602     7.7428   439.3941 </r>
       <r>    -1.3098     5.7278   439.6830 </r>
       <r>    -1.2594     2.8647   439.8274 </r>
       <r>    -1.2090     0.5711   439.8562 </r>
       <r>    -1.1585     0.3304   439.8729 </r>
       <r>    -1.1081     3.1798   440.0332 </r>
       <r>    -1.0577     9.1005   440.4921 </r>
       <r>    -1.0073    16.5169   441.3249 </r>
       <r>    -0.9568    22.5539   442.4621 </r>
       <r>    -0.9064    24.4207   443.6935 </r>
       <r>    -0.8560    21.1993   444.7624 </r>
       <r>    -0.8056    14.6111   445.4991 </r>
       <r>    -0.7552     8.0357   445.9043 </r>
       <r>    -0.7047     4.5306   446.1328 </r>
       <r>    -0.6543     5.3206   446.4011 </r>
       <r>    -0.6039     9.6370   446.8870 </r>
       <r>    -0.5535    15.6737   447.6773 </r>
       <r>    -0.5030    21.7214   448.7725 </r>
       <r>    -0.4526    26.6264   450.1151 </r>
       <r>    -0.4022    29.4973   451.6025 </r>
       <r>    -0.3518    29.4101   453.0854 </r>
       <r>    -0.3013    25.8045   454.3865 </r>
       <r>    -0.2509    19.2492   455.3571 </r>
       <r>    -0.2005    11.5700   455.9405 </r>
       <r>    -0.1501     4.9398   456.1896 </r>
       <r>    -0.0997     0.6917   456.2245 </r>
       <r>    -0.0492    -1.1444   456.1668 </r>
       <r>     0.0012    -1.3961   456.0964 </r>
       <r>     0.0516    -0.9988   456.0460 </r>
       <r>     0.1020    -0.5433   456.0186 </r>
       <r>     0.1525    -0.2409   456.0065 </r>
       <r>     0.2029    -0.0896   456.0019 </r>
       <r>     0.2533    -0.0284   456.0005 </r>
       <r>     0.3037    -0.0078   456.0001 </r>
       <r>     0.3541    -0.0018   456.0000 </r>
       <r>     0.4046    -0.0004   456.0000 </r>
       <r>     0.4550    -0.0001   456.0000 </r>
       <r>     0.5054     0.0000   456.0000 </r>
       <r>     0.5558     0.0000   456.0000 </r>
       <r>     0.6063     0.0000   456.0000 </r>
       <r>     0.6567     0.0000   456.0000 </r>
       <r>     0.7071     0.0000   456.0000 </r>
       <r>     0.7575     0.0000   456.0000 </r>
       <r>     0.8080     0.0000   456.0000 </r>
       <r>     0.8584     0.0000   456.0000 </r>
       <r>     0.9088     0.0000   456.0000 </r>
       <r>     0.9592     0.0000   456.0000 </r>
       <r>     1.0096     0.0000   456.0000 </r>
       <r>     1.0601     0.0000   456.0000 </r>
       <r>     1.1105     0.0000   456.0000 </r>
       <r>     1.1609     0.0000   456.0000 </r>
       <r>     1.2113     0.0000   456.0000 </r>
       <r>     1.2618     0.0000   456.0000 </r>
       <r>     1.3122     0.0000   456.0000 </r>
       <r>     1.3626     0.0000   456.0000 </r>
       <r>     1.4130     0.0000   456.0000 </r>
       <r>     1.4634     0.0000   456.0000 </r>
       <r>     1.5139     0.0000   456.0000 </r>
       <r>     1.5643     0.0000   456.0000 </r>
       <r>     1.6147     0.0000   456.0000 </r>
       <r>     1.6651     0.0000   456.0000 </r>
      </set>
     </set>
    </array>
   </total>
  </dos>
 </calculation>
 <structure name="finalpos" >
  <crystal>
   <varray name="basis" >
    <v>      18.00000000       0.00000000       0.00000000 </v>
    <v>       0.00000000      18.00000000       0.00000000 </v>
    <v>       0.00000000       0.00000000      18.00000000 </v>
   </varray>
   <i name="volume">   5832.00000000 </i>
   <varray name="rec_basis" >
    <v>       0.05555556       0.00000000       0.00000000 </v>
    <v>       0.00000000       0.05555556       0.00000000 </v>
    <v>       0.00000000       0.00000000       0.05555556 </v>
   </varray>
  </crystal>
  <varray name="positions" >
   <v>       0.72415987       0.57367709       0.49999884 </v>
   <v>       0.57367748       0.72416476       0.49999896 </v>
   <v>       0.27584718       0.57366508       0.50000102 </v>
   <v>       0.42633392       0.72415229       0.50000050 </v>
   <v>       0.27584506       0.42633293       0.50000053 </v>
   <v>       0.42633278       0.27584919       0.49999961 </v>
   <v>       0.72415965       0.42632488       0.49999934 </v>
   <v>       0.57367347       0.27583777       0.49999958 </v>
   <v>       0.66139785       0.50000291       0.61403403 </v>
   <v>       0.33859673       0.49999821       0.61404334 </v>
   <v>       0.50000485       0.66140186       0.61404044 </v>
   <v>       0.49999876       0.33859700       0.61404026 </v>
   <v>       0.64886196       0.64886231       0.60622248 </v>
   <v>       0.35115009       0.64885073       0.60622329 </v>
   <v>       0.35114542       0.35114654       0.60622383 </v>
   <v>       0.64885517       0.35114461       0.60622041 </v>
   <v>       0.66139838       0.49999881       0.38596471 </v>
   <v>       0.33859854       0.49999905       0.38596026 </v>
   <v>       0.50000385       0.66140334       0.38595872 </v>
   <v>       0.50000369       0.33859956       0.38596150 </v>
   <v>       0.64886010       0.64885942       0.39377423 </v>
   <v>       0.35115184       0.64884871       0.39377816 </v>
   <v>       0.35115095       0.35115082       0.39377660 </v>
   <v>       0.64885984       0.35114035       0.39377625 </v>
   <v>       0.57516716       0.57516805       0.71035430 </v>
   <v>       0.42483370       0.57516629       0.71035524 </v>
   <v>       0.42482849       0.42483027       0.71035654 </v>
   <v>       0.57516215       0.42483732       0.71034915 </v>
   <v>       0.57516540       0.57516346       0.28964734 </v>
   <v>       0.42483436       0.57516557       0.28964991 </v>
   <v>       0.42483466       0.42483341       0.28964981 </v>
   <v>       0.57516653       0.42483369       0.28964740 </v>
   <v>       0.49998814       0.49999905       0.60489762 </v>
   <v>       0.42563785       0.42564770       0.49999960 </v>
   <v>       0.42564235       0.57434859       0.49999975 </v>
   <v>       0.49999163       0.49999846       0.39510135 </v>
   <v>       0.57434040       0.57435174       0.49999737 </v>
   <v>       0.57433976       0.42564820       0.49999771 </v>
  </varray>
  <varray name="selective"  type="logical" >
   <v type="logical" >  T  T  T </v>
   <v type="logical" >  T  T  T </v>
   <v type="logical" >  T  T  T </v>
   <v type="logical" >  T  T  T </v>
   <v type="logical" >  T  T  T </v>
   <v type="logical" >  T  T  T </v>
   <v type="logical" >  T  T  T </v>
   <v type="logical" >  T  T  T </v>
   <v type="logical" >  T  T  T </v>
   <v type="logical" >  T  T  T </v>
   <v type="logical" >  T  T  T </v>
   <v type="logical" >  T  T  T </v>
   <v type="logical" >  T  T  T </v>
   <v type="logical" >  T  T  T </v>
   <v type="logical" >  T  T  T </v>
   <v type="logical" >  T  T  T </v>
   <v type="logical" >  T  T  T </v>
   <v type="logical" >  T  T  T </v>
   <v type="logical" >  T  T  T </v>
   <v type="logical" >  T  T  T </v>
   <v type="logical" >  T  T  T </v>
   <v type="logical" >  T  T  T </v>
   <v type="logical" >  T  T  T </v>
   <v type="logical" >  T  T  T </v>
   <v type="logical" >  T  T  T </v>
   <v type="logical" >  T  T  T </v>
   <v type="logical" >  T  T  T </v>
   <v type="logical" >  T  T  T </v>
   <v type="logical" >  T  T  T </v>
   <v type="logical" >  T  T  T </v>
   <v type="logical" >  T  T  T </v>
   <v type="logical" >  T  T  T </v>
   <v type="logical" >  T  T  T </v>
   <v type="logical" >  T  T  T </v>
   <v type="logical" >  T  T  T </v>
   <v type="logical" >  T  T  T </v>
   <v type="logical" >  T  T  T </v>
   <v type="logical" >  T  T  T </v>
  </varray>
  <nose>
   <v>      -3.00000000       0.00000000       0.00010000       0.00010000 </v>
  </nose>
 </structure>
</modeling>
