Pt cube particle                        
           1
    18.000000    0.000000    0.000000
     0.000000   18.000000    0.000000
     0.000000    0.000000   18.000000
   Pt   Pd
  32   6
Direct configuration=     1
   0.72415987  0.57367709  0.49999884
   0.57367748  0.72416476  0.49999896
   0.27584718  0.57366508  0.50000102
   0.42633392  0.72415229  0.50000050
   0.27584506  0.42633293  0.50000053
   0.42633278  0.27584919  0.49999961
   0.72415965  0.42632488  0.49999934
   0.57367347  0.27583777  0.49999958
   0.66139785  0.50000291  0.61403403
   0.33859673  0.49999821  0.61404334
   0.50000485  0.66140186  0.61404044
   0.49999876  0.33859700  0.61404026
   0.64886196  0.64886231  0.60622248
   0.35115009  0.64885073  0.60622329
   0.35114542  0.35114654  0.60622383
   0.64885517  0.35114461  0.60622041
   0.66139838  0.49999881  0.38596471
   0.33859854  0.49999905  0.38596026
   0.50000385  0.66140334  0.38595872
   0.50000369  0.33859956  0.38596150
   0.64886010  0.64885942  0.39377423
   0.35115184  0.64884871  0.39377816
   0.35115095  0.35115082  0.39377660
   0.64885984  0.35114035  0.39377625
   0.57516716  0.57516805  0.71035430
   0.42483370  0.57516629  0.71035524
   0.42482849  0.42483027  0.71035654
   0.57516215  0.42483732  0.71034915
   0.57516540  0.57516346  0.28964734
   0.42483436  0.57516557  0.28964991
   0.42483466  0.42483341  0.28964981
   0.57516653  0.42483369  0.28964740
   0.49998814  0.49999905  0.60489762
   0.42563785  0.42564770  0.49999960
   0.42564235  0.57434859  0.49999975
   0.49999163  0.49999846  0.39510135
   0.57434040  0.57435174  0.49999737
   0.57433976  0.42564820  0.49999771
