unknown system                          
   1.00000000000000     
     3.900000    0.000000    0.000000
     0.000000    3.900000    0.000000
     0.000000    0.000000    3.900000
   Sr   Fe   O 
     1     1     3
Direct
  0.500000  0.500000  0.500000
  0.000000  0.000000  0.000000
  0.500000  0.000000  0.000000
  0.000000  0.500000  0.000000
  0.000000  0.000000  0.500000
 
   36   36   36
  1213.0      1159.7      1009.9      793.06      552.29      333.42      171.23      78.267      43.023      38.728    
  44.888      60.739      92.109      144.69      219.08      307.40      393.28      456.33      479.54      456.33    
  393.28      307.40      219.08      144.69      92.109      60.739      44.888      38.728      43.023      78.267    
  171.23      333.42      552.29      793.06      1009.9      1159.7      1159.7      1108.0      963.20      754.20    
  523.05      314.12      160.50      73.533      41.307      37.584      43.549      58.685      88.494      138.59    
  209.74      294.50      377.12      437.86      460.25      437.86      377.12      294.50      209.74      138.59    
  88.494      58.685      43.549      37.584      41.307      73.533      160.50      314.12      523.05      754.20    
  963.20      1108.0      1009.9      963.20      832.94      646.47      442.77      261.79      131.96      61.265    
  36.885      34.403      39.819      53.068      78.610      121.80      183.80      258.36      331.59      385.69    
  405.68      385.69      331.59      258.36      183.80      121.80      78.610      53.068      39.819      34.403    
  36.885      61.265      131.96      261.79      442.77      646.47      832.94      963.20      793.06      754.20    
  646.47      494.35      331.60      191.28      94.990      46.216      31.357      29.852      34.455      45.261    
  64.995      98.384      147.05      206.47      265.52      309.49      325.80      309.49      265.52      206.47    
  147.05      98.384      64.995      45.261      34.455      29.852      31.357      46.216      94.990      191.28    
  331.60      494.35      646.47      754.20      552.29      523.05      442.77      331.60      216.28      121.34    
  60.684      33.338      25.817      24.783      28.434      36.783      50.759      73.734      107.61      149.75    
  192.28      224.28      236.21      224.28      192.28      149.75      107.61      73.734      50.759      36.783    
  28.434      24.783      25.817      33.338      60.684      121.34      216.28      331.60      442.77      523.05    
  333.42      314.12      261.79      191.28      121.34      67.659      36.934      24.902      20.644      19.975    
  22.651      28.666      38.237      52.522      73.236      99.330      126.10      146.49      154.14      146.49    
  126.10      99.330      73.236      52.522      38.237      28.666      22.651      19.975      20.644      24.902    
  36.934      67.659      121.34      191.28      261.79      314.12      171.23      160.50      131.96      94.990    
  60.684      36.934      24.942      19.323      16.414      15.947      17.712      21.696      28.040      36.787    
  48.246      62.326      76.829      87.977      92.183      87.977      76.829      62.326      48.246      36.787    
  28.040      21.696      17.712      15.947      16.414      19.323      24.942      36.934      60.684      94.990    
  131.96      160.50      78.267      73.533      61.265      46.216      33.338      24.902      19.323      15.480    
  13.401      12.917      13.877      16.262      20.141      25.510      32.092      39.297      46.315      51.616    
  53.608      51.616      46.315      39.297      32.092      25.510      20.141      16.262      13.877      12.917    
  13.401      15.480      19.323      24.902      33.338      46.216      61.265      73.533      43.023      41.307    
  36.885      31.357      25.817      20.644      16.414      13.401      11.598      10.879      11.139      12.341    
  14.490      17.546      21.315      25.371      29.067      31.676      32.621      31.676      29.067      25.371    
  21.315      17.546      14.490      12.341      11.139      10.879      11.598      13.401      16.414      20.644    
  25.817      31.357      36.885      41.307      38.728      37.584      34.403      29.852      24.783      19.975    
  15.947      12.917      10.879      9.7284      9.3567      9.6921      10.684      12.260      14.268      16.445    
  18.428      19.825      20.330      19.825      18.428      16.445      14.268      12.260      10.684      9.6921    
  9.3567      9.7284      10.879      12.917      15.947      19.975      24.783      29.852      34.403      37.584    
  44.888      43.549      39.819      34.455      28.434      22.651      17.712      13.877      11.139      9.3567    
  8.3660      8.0291      8.2379      8.8878      9.8474      10.940      11.951      12.666      12.924      12.666    
  11.951      10.940      9.8474      8.8878      8.2379      8.0291      8.3660      9.3567      11.139      13.877    
  17.712      22.651      28.434      34.455      39.819      43.549      60.739      58.685      53.068      45.261    
  36.783      28.666      21.696      16.262      12.341      9.6921      8.0291      7.1077      6.7425      6.7898    
  7.1196      7.5955      8.0733      8.4214      8.5483      8.4214      8.0733      7.5955      7.1196      6.7898    
  6.7425      7.1077      8.0291      9.6921      12.341      16.262      21.696      28.666      36.783      45.261    
  53.068      58.685      92.109      88.494      78.610      64.995      50.759      38.237      28.040      20.141    
  14.490      10.684      8.2379      6.7425      5.9026      5.5161      5.4379      5.5442      5.7189      5.8645    
  5.9198      5.8645      5.7189      5.5442      5.4379      5.5161      5.9026      6.7425      8.2379      10.684    
  14.490      20.141      28.040      38.237      50.759      64.995      78.610      88.494      144.69      138.59    
  121.80      98.384      73.734      52.522      36.787      25.510      17.546      12.260      8.8878      6.7898    
  5.5161      4.7814      4.4084      4.2689      4.2535      4.2764      4.2888      4.2764      4.2535      4.2689    
  4.4084      4.7814      5.5161      6.7898      8.8878      12.260      17.546      25.510      36.787      52.522    
  73.734      98.384      121.80      138.59      219.08      209.74      183.80      147.05      107.61      73.236    
  48.246      32.092      21.315      14.268      9.8474      7.1196      5.4379      4.4084      3.8064      3.4891    
  3.3432      3.2841      3.2681      3.2841      3.3432      3.4891      3.8064      4.4084      5.4379      7.1196    
  9.8474      14.268      21.315      32.092      48.246      73.236      107.61      147.05      183.80      209.74    
  307.40      294.50      258.36      206.47      149.75      99.330      62.326      39.297      25.371      16.445    
  10.940      7.5955      5.5442      4.2689      3.4891      3.0412      2.8033      2.6878      2.6525      2.6878    
  2.8033      3.0412      3.4891      4.2689      5.5442      7.5955      10.940      16.445      25.371      39.297    
  62.326      99.330      149.75      206.47      258.36      294.50      393.28      377.12      331.59      265.52    
  192.28      126.10      76.829      46.315      29.067      18.428      11.951      8.0733      5.7189      4.2535    
  3.3432      2.8033      2.5029      2.3499      2.3018      2.3499      2.5029      2.8033      3.3432      4.2535    
  5.7189      8.0733      11.951      18.428      29.067      46.315      76.829      126.10      192.28      265.52    
  331.59      377.12      456.33      437.86      385.69      309.49      224.28      146.49      87.977      51.616    
  31.676      19.825      12.666      8.4214      5.8645      4.2764      3.2841      2.6878      2.3499      2.1747    
  2.1191      2.1747      2.3499      2.6878      3.2841      4.2764      5.8645      8.4214      12.666      19.825    
  31.676      51.616      87.977      146.49      224.28      309.49      385.69      437.86      479.54      460.25    
  405.68      325.80      236.21      154.14      92.183      53.608      32.621      20.330      12.924      8.5483    
  5.9198      4.2888      3.2681      2.6525      2.3018      2.1191      2.0610      2.1191      2.3018      2.6525    
  3.2681      4.2888      5.9198      8.5483      12.924      20.330      32.621      53.608      92.183      154.14    
  236.21      325.80      405.68      460.25      456.33      437.86      385.69      309.49      224.28      146.49    
  87.977      51.616      31.676      19.825      12.666      8.4214      5.8645      4.2764      3.2841      2.6878    
  2.3499      2.1747      2.1191      2.1747      2.3499      2.6878      3.2841      4.2764      5.8645      8.4214    
  12.666      19.825      31.676      51.616      87.977      146.49      224.28      309.49      385.69      437.86    
  393.28      377.12      331.59      265.52      192.28      126.10      76.829      46.315      29.067      18.428    
  11.951      8.0733      5.7189      4.2535      3.3432      2.8033      2.5029      2.3499      2.3018      2.3499    
  2.5029      2.8033      3.3432      4.2535      5.7189      8.0733      11.951      18.428      29.067      46.315    
  76.829      126.10      192.28      265.52      331.59      377.12      307.40      294.50      258.36      206.47    
  149.75      99.330      62.326      39.297      25.371      16.445      10.940      7.5955      5.5442      4.2689    
  3.4891      3.0412      2.8033      2.6878      2.6525      2.6878      2.8033      3.0412      3.4891      4.2689    
  5.5442      7.5955      10.940      16.445      25.371      39.297      62.326      99.330      149.75      206.47    
  258.36      294.50      219.08      209.74      183.80      147.05      107.61      73.236      48.246      32.092    
  21.315      14.268      9.8474      7.1196      5.4379      4.4084      3.8064      3.4891      3.3432      3.2841    
  3.2681      3.2841      3.3432      3.4891      3.8064      4.4084      5.4379      7.1196      9.8474      14.268    
  21.315      32.092      48.246      73.236      107.61      147.05      183.80      209.74      144.69      138.59    
  121.80      98.384      73.734      52.522      36.787      25.510      17.546      12.260      8.8878      6.7898    
  5.5161      4.7814      4.4084      4.2689      4.2535      4.2764      4.2888      4.2764      4.2535      4.2689    
  4.4084      4.7814      5.5161      6.7898      8.8878      12.260      17.546      25.510      36.787      52.522    
  73.734      98.384      121.80      138.59      92.109      88.494      78.610      64.995      50.759      38.237    
  28.040      20.141      14.490      10.684      8.2379      6.7425      5.9026      5.5161      5.4379      5.5442    
  5.7189      5.8645      5.9198      5.8645      5.7189      5.5442      5.4379      5.5161      5.9026      6.7425    
  8.2379      10.684      14.490      20.141      28.040      38.237      50.759      64.995      78.610      88.494    
  60.739      58.685      53.068      45.261      36.783      28.666      21.696      16.262      12.341      9.6921    
  8.0291      7.1077      6.7425      6.7898      7.1196      7.5955      8.0733      8.4214      8.5483      8.4214    
  8.0733      7.5955      7.1196      6.7898      6.7425      7.1077      8.0291      9.6921      12.341      16.262    
  21.696      28.666      36.783      45.261      53.068      58.685      44.888      43.549      39.819      34.455    
  28.434      22.651      17.712      13.877      11.139      9.3567      8.3660      8.0291      8.2379      8.8878    
  9.8474      10.940      11.951      12.666      12.924      12.666      11.951      10.940      9.8474      8.8878    
  8.2379      8.0291      8.3660      9.3567      11.139      13.877      17.712      22.651      28.434      34.455    
  39.819      43.549      38.728      37.584      34.403      29.852      24.783      19.975      15.947      12.917    
  10.879      9.7284      9.3567      9.6921      10.684      12.260      14.268      16.445      18.428      19.825    
  20.330      19.825      18.428      16.445      14.268      12.260      10.684      9.6921      9.3567      9.7284    
  10.879      12.917      15.947      19.975      24.783      29.852      34.403      37.584      43.023      41.307    
  36.885      31.357      25.817      20.644      16.414      13.401      11.598      10.879      11.139      12.341    
  14.490      17.546      21.315      25.371      29.067      31.676      32.621      31.676      29.067      25.371    
  21.315      17.546      14.490      12.341      11.139      10.879      11.598      13.401      16.414      20.644    
  25.817      31.357      36.885      41.307      78.267      73.533      61.265      46.216      33.338      24.902    
  19.323      15.480      13.401      12.917      13.877      16.262      20.141      25.510      32.092      39.297    
  46.315      51.616      53.608      51.616      46.315      39.297      32.092      25.510      20.141      16.262    
  13.877      12.917      13.401      15.480      19.323      24.902      33.338      46.216      61.265      73.533    
  171.23      160.50      131.96      94.990      60.684      36.934      24.942      19.323      16.414      15.947    
  17.712      21.696      28.040      36.787      48.246      62.326      76.829      87.977      92.183      87.977    
  76.829      62.326      48.246      36.787      28.040      21.696      17.712      15.947      16.414      19.323    
  24.942      36.934      60.684      94.990      131.96      160.50      333.42      314.12      261.79      191.28    
  121.34      67.659      36.934      24.902      20.644      19.975      22.651      28.666      38.237      52.522    
  73.236      99.330      126.10      146.49      154.14      146.49      126.10      99.330      73.236      52.522    
  38.237      28.666      22.651      19.975      20.644      24.902      36.934      67.659      121.34      191.28    
  261.79      314.12      552.29      523.05      442.77      331.60      216.28      121.34      60.684      33.338    
  25.817      24.783      28.434      36.783      50.759      73.734      107.61      149.75      192.28      224.28    
  236.21      224.28      192.28      149.75      107.61      73.734      50.759      36.783      28.434      24.783    
  25.817      33.338      60.684      121.34      216.28      331.60      442.77      523.05      793.06      754.20    
  646.47      494.35      331.60      191.28      94.990      46.216      31.357      29.852      34.455      45.261    
  64.995      98.384      147.05      206.47      265.52      309.49      325.80      309.49      265.52      206.47    
  147.05      98.384      64.995      45.261      34.455      29.852      31.357      46.216      94.990      191.28    
  331.60      494.35      646.47      754.20      1009.9      963.20      832.94      646.47      442.77      261.79    
  131.96      61.265      36.885      34.403      39.819      53.068      78.610      121.80      183.80      258.36    
  331.59      385.69      405.68      385.69      331.59      258.36      183.80      121.80      78.610      53.068    
  39.819      34.403      36.885      61.265      131.96      261.79      442.77      646.47      832.94      963.20    
  1159.7      1108.0      963.20      754.20      523.05      314.12      160.50      73.533      41.307      37.584    
  43.549      58.685      88.494      138.59      209.74      294.50      377.12      437.86      460.25      437.86    
  377.12      294.50      209.74      138.59      88.494      58.685      43.549      37.584      41.307      73.533    
  160.50      314.12      523.05      754.20      963.20      1108.0      1159.7      1108.0      963.20      754.20    
  523.05      314.12      160.50      73.533      41.307      37.584      43.549      58.685      88.494      138.59    
  209.74      294.50      377.12      437.86      460.25      437.86      377.12      294.50      209.74      138.59    
  88.494      58.685      43.549      37.584      41.307      73.533      160.50      314.12      523.05      754.20    
  963.20      1108.0      1108.0      1058.0      918.15      716.82      495.07      295.76      150.39      69.132    
  39.718      36.482      42.259      56.725      85.044      132.75      200.76      282.03      361.45      419.94    
  441.51      419.94      361.45      282.03      200.76      132.75      85.044      56.725      42.259      36.482    
  39.718      69.132      150.39      295.76      495.07      716.82      918.15      1058.0      963.20      918.15    
  792.59      613.34      418.33      246.08      123.55      57.751      35.615      33.419      38.664      51.363    
  75.620      116.68      175.82      247.18      317.42      369.39      388.61      369.39      317.42      247.18    
  175.82      116.68      75.620      51.363      38.664      33.419      35.615      57.751      123.55      246.08    
  418.33      613.34      792.59      918.15      754.20      716.82      613.34      467.62      312.37      179.35    
  88.938      43.852      30.436      29.035      33.495      43.898      62.656      94.337      140.62      197.30    
  253.75      295.85      311.48      295.85      253.75      197.30      140.62      94.337      62.656      43.898    
  33.495      29.035      30.436      43.852      88.938      179.35      312.37      467.62      613.34      716.82    
  523.05      495.07      418.33      312.37      202.97      113.53      57.034      32.017      25.122      24.149    
  27.688      35.749      49.104      70.883      103.00      143.04      183.52      214.03      225.41      214.03    
  183.52      143.04      103.00      70.883      49.104      35.749      27.688      24.149      25.122      32.017    
  57.034      113.53      202.97      312.37      418.33      495.07      314.12      295.76      246.08      179.35    
  113.53      63.450      35.173      24.203      20.132      19.510      22.105      27.913      37.139      50.735    
  70.343      95.043      120.41      139.76      147.02      139.76      120.41      95.043      70.343      50.735    
  37.139      27.913      22.105      19.510      20.132      24.203      35.173      63.450      113.53      179.35    
  246.08      295.76      160.50      150.39      123.55      88.938      57.034      35.173      24.198      18.838    
  16.051      15.616      17.329      21.180      27.303      35.731      46.644      59.968      73.673      84.206    
  88.181      84.206      73.673      59.968      46.644      35.731      27.303      21.180      17.329      15.616    
  16.051      18.838      24.198      35.173      57.034      88.938      123.55      150.39      73.533      69.132    
  57.751      43.852      32.017      24.203      18.838      15.139      13.142      12.681      13.613      15.921    
  19.670      24.856      31.207      38.116      44.788      49.808      51.692      49.808      44.788      38.116    
  31.207      24.856      19.670      15.921      13.613      12.681      13.142      15.139      18.838      24.203    
  32.017      43.852      57.751      69.132      41.307      39.718      35.615      30.436      25.122      20.132    
  16.051      13.142      11.399      10.702      10.954      12.118      14.200      17.157      20.800      24.718    
  28.286      30.805      31.716      30.805      28.286      24.718      20.800      17.157      14.200      12.118    
  10.954      10.702      11.399      13.142      16.051      20.132      25.122      30.436      35.615      39.718    
  37.584      36.482      33.419      29.035      24.149      19.510      15.616      12.681      10.702      9.5822    
  9.2184      9.5426      10.506      12.034      13.981      16.091      18.011      19.363      19.851      19.363    
  18.011      16.091      13.981      12.034      10.506      9.5426      9.2184      9.5822      10.702      12.681    
  15.616      19.510      24.149      29.035      33.419      36.482      43.549      42.259      38.664      33.495    
  27.688      22.105      17.329      13.613      10.954      9.2184      8.2513      7.9215      8.1241      8.7571    
  9.6916      10.755      11.738      12.433      12.684      12.433      11.738      10.755      9.6916      8.7571    
  8.1241      7.9215      8.2513      9.2184      10.954      13.613      17.329      22.105      27.688      33.495    
  38.664      42.259      58.685      56.725      51.363      43.898      35.749      27.913      21.180      15.921    
  12.118      9.5426      7.9215      7.0216      6.6649      6.7119      7.0354      7.5016      7.9693      8.3099    
  8.4341      8.3099      7.9693      7.5016      7.0354      6.7119      6.6649      7.0216      7.9215      9.5426    
  12.118      15.921      21.180      27.913      35.749      43.898      51.363      56.725      88.494      85.044    
  75.620      62.656      49.104      37.139      27.303      19.670      14.200      10.506      8.1241      6.6649    
  5.8445      5.4679      5.3937      5.5003      5.6735      5.8176      5.8723      5.8176      5.6735      5.5003    
  5.3937      5.4679      5.8445      6.6649      8.1241      10.506      14.200      19.670      27.303      37.139    
  49.104      62.656      75.620      85.044      138.59      132.75      116.68      94.337      70.883      50.735    
  35.731      24.856      17.157      12.034      8.7571      6.7119      5.4679      4.7507      4.3880      4.2544    
  4.2420      4.2664      4.2793      4.2664      4.2420      4.2544      4.3880      4.7507      5.4679      6.7119    
  8.7571      12.034      17.157      24.856      35.731      50.735      70.883      94.337      116.68      132.75    
  209.74      200.76      175.82      140.62      103.00      70.343      46.644      31.207      20.800      13.981    
  9.6916      7.0354      5.3937      4.3880      3.8010      3.4931      3.3530      3.2973      3.2824      3.2973    
  3.3530      3.4931      3.8010      4.3880      5.3937      7.0354      9.6916      13.981      20.800      31.207    
  46.644      70.343      103.00      140.62      175.82      200.76      294.50      282.03      247.18      197.30    
  143.04      95.043      59.968      38.116      24.718      16.091      10.755      7.5016      5.5003      4.2544    
  3.4931      3.0572      2.8270      2.7160      2.6823      2.7160      2.8270      3.0572      3.4931      4.2544    
  5.5003      7.5016      10.755      16.091      24.718      38.116      59.968      95.043      143.04      197.30    
  247.18      282.03      377.12      361.45      317.42      253.75      183.52      120.41      73.673      44.788    
  28.286      18.011      11.738      7.9693      5.6735      4.2420      3.3530      2.8270      2.5355      2.3878    
  2.3415      2.3878      2.5355      2.8270      3.3530      4.2420      5.6735      7.9693      11.738      18.011    
  28.286      44.788      73.673      120.41      183.52      253.75      317.42      361.45      437.86      419.94    
  369.39      295.85      214.03      139.76      84.206      49.808      30.805      19.363      12.433      8.3099    
  5.8176      4.2664      3.2973      2.7160      2.3878      2.2184      2.1648      2.2184      2.3878      2.7160    
  3.2973      4.2664      5.8176      8.3099      12.433      19.363      30.805      49.808      84.206      139.76    
  214.03      295.85      369.39      419.94      460.25      441.51      388.61      311.48      225.41      147.02    
  88.181      51.692      31.716      19.851      12.684      8.4341      5.8723      4.2793      3.2824      2.6823    
  2.3415      2.1648      2.1087      2.1648      2.3415      2.6823      3.2824      4.2793      5.8723      8.4341    
  12.684      19.851      31.716      51.692      88.181      147.02      225.41      311.48      388.61      441.51    
  437.86      419.94      369.39      295.85      214.03      139.76      84.206      49.808      30.805      19.363    
  12.433      8.3099      5.8176      4.2664      3.2973      2.7160      2.3878      2.2184      2.1648      2.2184    
  2.3878      2.7160      3.2973      4.2664      5.8176      8.3099      12.433      19.363      30.805      49.808    
  84.206      139.76      214.03      295.85      369.39      419.94      377.12      361.45      317.42      253.75    
  183.52      120.41      73.673      44.788      28.286      18.011      11.738      7.9693      5.6735      4.2420    
  3.3530      2.8270      2.5355      2.3878      2.3415      2.3878      2.5355      2.8270      3.3530      4.2420    
  5.6735      7.9693      11.738      18.011      28.286      44.788      73.673      120.41      183.52      253.75    
  317.42      361.45      294.50      282.03      247.18      197.30      143.04      95.043      59.968      38.116    
  24.718      16.091      10.755      7.5016      5.5003      4.2544      3.4931      3.0572      2.8270      2.7160    
  2.6823      2.7160      2.8270      3.0572      3.4931      4.2544      5.5003      7.5016      10.755      16.091    
  24.718      38.116      59.968      95.043      143.04      197.30      247.18      282.03      209.74      200.76    
  175.82      140.62      103.00      70.343      46.644      31.207      20.800      13.981      9.6916      7.0354    
  5.3937      4.3880      3.8010      3.4931      3.3530      3.2973      3.2824      3.2973      3.3530      3.4931    
  3.8010      4.3880      5.3937      7.0354      9.6916      13.981      20.800      31.207      46.644      70.343    
  103.00      140.62      175.82      200.76      138.59      132.75      116.68      94.337      70.883      50.735    
  35.731      24.856      17.157      12.034      8.7571      6.7119      5.4679      4.7507      4.3880      4.2544    
  4.2420      4.2664      4.2793      4.2664      4.2420      4.2544      4.3880      4.7507      5.4679      6.7119    
  8.7571      12.034      17.157      24.856      35.731      50.735      70.883      94.337      116.68      132.75    
  88.494      85.044      75.620      62.656      49.104      37.139      27.303      19.670      14.200      10.506    
  8.1241      6.6649      5.8445      5.4679      5.3937      5.5003      5.6735      5.8176      5.8723      5.8176    
  5.6735      5.5003      5.3937      5.4679      5.8445      6.6649      8.1241      10.506      14.200      19.670    
  27.303      37.139      49.104      62.656      75.620      85.044      58.685      56.725      51.363      43.898    
  35.749      27.913      21.180      15.921      12.118      9.5426      7.9215      7.0216      6.6649      6.7119    
  7.0354      7.5016      7.9693      8.3099      8.4341      8.3099      7.9693      7.5016      7.0354      6.7119    
  6.6649      7.0216      7.9215      9.5426      12.118      15.921      21.180      27.913      35.749      43.898    
  51.363      56.725      43.549      42.259      38.664      33.495      27.688      22.105      17.329      13.613    
  10.954      9.2184      8.2513      7.9215      8.1241      8.7571      9.6916      10.755      11.738      12.433    
  12.684      12.433      11.738      10.755      9.6916      8.7571      8.1241      7.9215      8.2513      9.2184    
  10.954      13.613      17.329      22.105      27.688      33.495      38.664      42.259      37.584      36.482    
  33.419      29.035      24.149      19.510      15.616      12.681      10.702      9.5822      9.2184      9.5426    
  10.506      12.034      13.981      16.091      18.011      19.363      19.851      19.363      18.011      16.091    
  13.981      12.034      10.506      9.5426      9.2184      9.5822      10.702      12.681      15.616      19.510    
  24.149      29.035      33.419      36.482      41.307      39.718      35.615      30.436      25.122      20.132    
  16.051      13.142      11.399      10.702      10.954      12.118      14.200      17.157      20.800      24.718    
  28.286      30.805      31.716      30.805      28.286      24.718      20.800      17.157      14.200      12.118    
  10.954      10.702      11.399      13.142      16.051      20.132      25.122      30.436      35.615      39.718    
  73.533      69.132      57.751      43.852      32.017      24.203      18.838      15.139      13.142      12.681    
  13.613      15.921      19.670      24.856      31.207      38.116      44.788      49.808      51.692      49.808    
  44.788      38.116      31.207      24.856      19.670      15.921      13.613      12.681      13.142      15.139    
  18.838      24.203      32.017      43.852      57.751      69.132      160.50      150.39      123.55      88.938    
  57.034      35.173      24.198      18.838      16.051      15.616      17.329      21.180      27.303      35.731    
  46.644      59.968      73.673      84.206      88.181      84.206      73.673      59.968      46.644      35.731    
  27.303      21.180      17.329      15.616      16.051      18.838      24.198      35.173      57.034      88.938    
  123.55      150.39      314.12      295.76      246.08      179.35      113.53      63.450      35.173      24.203    
  20.132      19.510      22.105      27.913      37.139      50.735      70.343      95.043      120.41      139.76    
  147.02      139.76      120.41      95.043      70.343      50.735      37.139      27.913      22.105      19.510    