unknown system                          
   1.00000000000000     
     3.900000    0.000000    0.000000
     0.000000    3.900000    0.000000
     0.000000    0.000000    3.900000
   Sr   Fe   O 
     1     1     3
Direct
  0.500000  0.500000  0.500000
  0.000000  0.000000  0.000000
  0.500000  0.000000  0.000000
  0.000000  0.500000  0.000000
  0.000000  0.000000  0.500000
 
   36   36   36
 0.12130440303E+04 0.11596764027E+04 0.10098744532E+04 0.79306409489E+03 0.55228849771E+03
 0.33342339331E+03 0.17122512562E+03 0.78267401092E+02 0.43023328134E+02 0.38728003591E+02
 0.44888395200E+02 0.60739134350E+02 0.92109447732E+02 0.14469077219E+03 0.21908135656E+03
 0.30740135275E+03 0.39328453076E+03 0.45632518667E+03 0.47953992465E+03 0.45632518667E+03
 0.39328453076E+03 0.30740135275E+03 0.21908135656E+03 0.14469077219E+03 0.92109447732E+02
 0.60739134350E+02 0.44888395200E+02 0.38728003591E+02 0.43023328134E+02 0.78267401092E+02
 0.17122512562E+03 0.33342339331E+03 0.55228849771E+03 0.79306409489E+03 0.10098744532E+04
 0.11596764027E+04 0.11596764027E+04 0.11080132665E+04 0.96320336866E+03 0.75420209639E+03
 0.52305134499E+03 0.31411572576E+03 0.16049695718E+03 0.73533458230E+02 0.41306804464E+02
 0.37583704800E+02 0.43549077992E+02 0.58684928435E+02 0.88493953143E+02 0.13859447719E+03
 0.20974471716E+03 0.29449717400E+03 0.37711737504E+03 0.43786328138E+03 0.46025135223E+03
 0.43786328138E+03 0.37711737504E+03 0.29449717400E+03 0.20974471716E+03 0.13859447719E+03
 0.88493953143E+02 0.58684928435E+02 0.43549077992E+02 0.37583704800E+02 0.41306804464E+02
 0.73533458230E+02 0.16049695718E+03 0.31411572576E+03 0.52305134499E+03 0.75420209639E+03
 0.96320336866E+03 0.11080132665E+04 0.10098744532E+04 0.96320336866E+03 0.83293530314E+03
 0.64646946810E+03 0.44277176557E+03 0.26178882107E+03 0.13195635069E+03 0.61264817442E+02
 0.36885421056E+02 0.34402825185E+02 0.39818555662E+02 0.53067541681E+02 0.78610258797E+02
 0.12179934863E+03 0.18379722263E+03 0.25836467965E+03 0.33159198581E+03 0.38569401970E+03
 0.40568155115E+03 0.38569401970E+03 0.33159198581E+03 0.25836467965E+03 0.18379722263E+03
 0.12179934863E+03 0.78610258797E+02 0.53067541681E+02 0.39818555662E+02 0.34402825185E+02
 0.36885421056E+02 0.61264817442E+02 0.13195635069E+03 0.26178882107E+03 0.44277176557E+03
 0.64646946810E+03 0.83293530314E+03 0.96320336866E+03 0.79306409489E+03 0.75420209639E+03
 0.64646946810E+03 0.49434950692E+03 0.33160407038E+03 0.19127995657E+03 0.94990260820E+02
 0.46216042862E+02 0.31356822216E+02 0.29851683138E+02 0.34455226806E+02 0.45260503300E+02
 0.64995017506E+02 0.98384343368E+02 0.14704713636E+03 0.20647135806E+03 0.26552057284E+03
 0.30949065565E+03 0.32579818428E+03 0.30949065565E+03 0.26552057284E+03 0.20647135806E+03
 0.14704713636E+03 0.98384343368E+02 0.64995017506E+02 0.45260503300E+02 0.34455226806E+02
 0.29851683138E+02 0.31356822216E+02 0.46216042862E+02 0.94990260820E+02 0.19127995657E+03
 0.33160407038E+03 0.49434950692E+03 0.64646946810E+03 0.75420209639E+03 0.55228849771E+03
 0.52305134499E+03 0.44277176557E+03 0.33160407038E+03 0.21628431291E+03 0.12134366060E+03
 0.60684259419E+02 0.33338103934E+02 0.25817413959E+02 0.24783181942E+02 0.28434129347E+02
 0.36782659968E+02 0.50758710146E+02 0.73734351488E+02 0.10761459836E+03 0.14975230843E+03
 0.19227783014E+03 0.22427873691E+03 0.23620955906E+03 0.22427873691E+03 0.19227783014E+03
 0.14975230843E+03 0.10761459836E+03 0.73734351488E+02 0.50758710146E+02 0.36782659968E+02
 0.28434129347E+02 0.24783181942E+02 0.25817413959E+02 0.33338103934E+02 0.60684259419E+02
 0.12134366060E+03 0.21628431291E+03 0.33160407038E+03 0.44277176557E+03 0.52305134499E+03
 0.33342339331E+03 0.31411572576E+03 0.26178882107E+03 0.19127995657E+03 0.12134366060E+03
 0.67659300221E+02 0.36933555201E+02 0.24901852953E+02 0.20644215037E+02 0.19975066331E+02
 0.22650918189E+02 0.28665784974E+02 0.38237325927E+02 0.52521940757E+02 0.73236104228E+02
 0.99330309244E+02 0.12609746767E+03 0.14648843156E+03 0.15413893087E+03 0.14648843156E+03
 0.12609746767E+03 0.99330309244E+02 0.73236104228E+02 0.52521940757E+02 0.38237325927E+02
 0.28665784974E+02 0.22650918189E+02 0.19975066331E+02 0.20644215037E+02 0.24901852953E+02
 0.36933555201E+02 0.67659300221E+02 0.12134366060E+03 0.19127995657E+03 0.26178882107E+03
 0.31411572576E+03 0.17122512562E+03 0.16049695718E+03 0.13195635069E+03 0.94990260820E+02
 0.60684259419E+02 0.36933555201E+02 0.24941540420E+02 0.19322647448E+02 0.16414413691E+02
 0.15946900815E+02 0.17711662968E+02 0.21696072555E+02 0.28039782757E+02 0.36786639262E+02
 0.48245642437E+02 0.62326152227E+02 0.76829256441E+02 0.87976643804E+02 0.92182669286E+02
 0.87976643804E+02 0.76829256441E+02 0.62326152227E+02 0.48245642437E+02 0.36786639262E+02
 0.28039782757E+02 0.21696072555E+02 0.17711662968E+02 0.15946900815E+02 0.16414413691E+02
 0.19322647448E+02 0.24941540420E+02 0.36933555201E+02 0.60684259419E+02 0.94990260820E+02
 0.13195635069E+03 0.16049695718E+03 0.78267401092E+02 0.73533458230E+02 0.61264817442E+02
 0.46216042862E+02 0.33338103934E+02 0.24901852953E+02 0.19322647448E+02 0.15479802558E+02
 0.13401409813E+02 0.12916841370E+02 0.13876604258E+02 0.16261925878E+02 0.20140671989E+02
 0.25510488527E+02 0.32092001687E+02 0.39296691910E+02 0.46314693690E+02 0.51616073377E+02
 0.53608320881E+02 0.51616073377E+02 0.46314693690E+02 0.39296691910E+02 0.32092001687E+02
 0.25510488527E+02 0.20140671989E+02 0.16261925878E+02 0.13876604258E+02 0.12916841370E+02
 0.13401409813E+02 0.15479802558E+02 0.19322647448E+02 0.24901852953E+02 0.33338103934E+02
 0.46216042862E+02 0.61264817442E+02 0.73533458230E+02 0.43023328134E+02 0.41306804464E+02
 0.36885421056E+02 0.31356822216E+02 0.25817413959E+02 0.20644215037E+02 0.16414413691E+02
 0.13401409813E+02 0.11598065817E+02 0.10879176754E+02 0.11138604345E+02 0.12340804597E+02
 0.14490207464E+02 0.17546082915E+02 0.21314957622E+02 0.25370637322E+02 0.29066721514E+02
 0.31676429125E+02 0.32620658839E+02 0.31676429125E+02 0.29066721514E+02 0.25370637322E+02
 0.21314957622E+02 0.17546082915E+02 0.14490207464E+02 0.12340804597E+02 0.11138604345E+02
 0.10879176754E+02 0.11598065817E+02 0.13401409813E+02 0.16414413691E+02 0.20644215037E+02
 0.25817413959E+02 0.31356822216E+02 0.36885421056E+02 0.41306804464E+02 0.38728003591E+02
 0.37583704800E+02 0.34402825185E+02 0.29851683138E+02 0.24783181942E+02 0.19975066331E+02
 0.15946900815E+02 0.12916841370E+02 0.10879176754E+02 0.97284159646E+01 0.93566958386E+01
 0.96920713612E+01 0.10684306076E+02 0.12259687108E+02 0.14267545735E+02 0.16444901858E+02
 0.18428059651E+02 0.19825080512E+02 0.20329517303E+02 0.19825080512E+02 0.18428059651E+02
 0.16444901858E+02 0.14267545735E+02 0.12259687108E+02 0.10684306076E+02 0.96920713612E+01
 0.93566958386E+01 0.97284159646E+01 0.10879176754E+02 0.12916841370E+02 0.15946900815E+02
 0.19975066331E+02 0.24783181942E+02 0.29851683138E+02 0.34402825185E+02 0.37583704800E+02
 0.44888395200E+02 0.43549077992E+02 0.39818555662E+02 0.34455226806E+02 0.28434129347E+02
 0.22650918189E+02 0.17711662968E+02 0.13876604258E+02 0.11138604345E+02 0.93566958386E+01
 0.83659617967E+01 0.80291368166E+01 0.82379333385E+01 0.88878119857E+01 0.98473785741E+01
 0.10939882581E+02 0.11950934667E+02 0.12665923187E+02 0.12924159490E+02 0.12665923187E+02
 0.11950934667E+02 0.10939882581E+02 0.98473785741E+01 0.88878119857E+01 0.82379333385E+01
 0.80291368166E+01 0.83659617967E+01 0.93566958386E+01 0.11138604345E+02 0.13876604258E+02
 0.17711662968E+02 0.22650918189E+02 0.28434129347E+02 0.34455226806E+02 0.39818555662E+02
 0.43549077992E+02 0.60739134350E+02 0.58684928435E+02 0.53067541681E+02 0.45260503300E+02
 0.36782659968E+02 0.28665784974E+02 0.21696072555E+02 0.16261925878E+02 0.12340804597E+02
 0.96920713612E+01 0.80291368166E+01 0.71076968499E+01 0.67425399157E+01 0.67897739032E+01
 0.71195777010E+01 0.75954551119E+01 0.80732563572E+01 0.84214206386E+01 0.85483358359E+01
 0.84214206386E+01 0.80732563572E+01 0.75954551119E+01 0.71195777010E+01 0.67897739032E+01
 0.67425399157E+01 0.71076968499E+01 0.80291368166E+01 0.96920713612E+01 0.12340804597E+02
 0.16261925878E+02 0.21696072555E+02 0.28665784974E+02 0.36782659968E+02 0.45260503300E+02
 0.53067541681E+02 0.58684928435E+02 0.92109447732E+02 0.88493953143E+02 0.78610258797E+02
 0.64995017506E+02 0.50758710146E+02 0.38237325927E+02 0.28039782757E+02 0.20140671989E+02
 0.14490207464E+02 0.10684306076E+02 0.82379333385E+01 0.67425399157E+01 0.59025707659E+01
 0.55160898543E+01 0.54378856985E+01 0.55442232816E+01 0.57188660671E+01 0.58645367847E+01
 0.59198223487E+01 0.58645367847E+01 0.57188660671E+01 0.55442232816E+01 0.54378856985E+01
 0.55160898543E+01 0.59025707659E+01 0.67425399157E+01 0.82379333385E+01 0.10684306076E+02
 0.14490207464E+02 0.20140671989E+02 0.28039782757E+02 0.38237325927E+02 0.50758710146E+02
 0.64995017506E+02 0.78610258797E+02 0.88493953143E+02 0.14469077219E+03 0.13859447719E+03
 0.12179934863E+03 0.98384343368E+02 0.73734351488E+02 0.52521940757E+02 0.36786639262E+02
 0.25510488527E+02 0.17546082915E+02 0.12259687108E+02 0.88878119857E+01 0.67897739032E+01
 0.55160898543E+01 0.47814402800E+01 0.44083634996E+01 0.42689135138E+01 0.42535284384E+01
 0.42764011605E+01 0.42887906337E+01 0.42764011605E+01 0.42535284384E+01 0.42689135138E+01
 0.44083634996E+01 0.47814402800E+01 0.55160898543E+01 0.67897739032E+01 0.88878119857E+01
 0.12259687108E+02 0.17546082915E+02 0.25510488527E+02 0.36786639262E+02 0.52521940757E+02
 0.73734351488E+02 0.98384343368E+02 0.12179934863E+03 0.13859447719E+03 0.21908135656E+03
 0.20974471716E+03 0.18379722263E+03 0.14704713636E+03 0.10761459836E+03 0.73236104228E+02
 0.48245642437E+02 0.32092001687E+02 0.21314957622E+02 0.14267545735E+02 0.98473785741E+01
 0.71195777010E+01 0.54378856985E+01 0.44083634996E+01 0.38064268837E+01 0.34891361630E+01
 0.33431935732E+01 0.32840765202E+01 0.32681048367E+01 0.32840765202E+01 0.33431935732E+01
 0.34891361630E+01 0.38064268837E+01 0.44083634996E+01 0.54378856985E+01 0.71195777010E+01
 0.98473785741E+01 0.14267545735E+02 0.21314957622E+02 0.32092001687E+02 0.48245642437E+02
 0.73236104228E+02 0.10761459836E+03 0.14704713636E+03 0.18379722263E+03 0.20974471716E+03
 0.30740135275E+03 0.29449717400E+03 0.25836467965E+03 0.20647135806E+03 0.14975230843E+03
 0.99330309244E+02 0.62326152227E+02 0.39296691910E+02 0.25370637322E+02 0.16444901858E+02
 0.10939882581E+02 0.75954551119E+01 0.55442232816E+01 0.42689135138E+01 0.34891361630E+01
 0.30411883812E+01 0.28033084909E+01 0.26878072521E+01 0.26524813152E+01 0.26878072521E+01
 0.28033084909E+01 0.30411883812E+01 0.34891361630E+01 0.42689135138E+01 0.55442232816E+01
 0.75954551119E+01 0.10939882581E+02 0.16444901858E+02 0.25370637322E+02 0.39296691910E+02
 0.62326152227E+02 0.99330309244E+02 0.14975230843E+03 0.20647135806E+03 0.25836467965E+03
 0.29449717400E+03 0.39328453076E+03 0.37711737504E+03 0.33159198581E+03 0.26552057284E+03
 0.19227783014E+03 0.12609746767E+03 0.76829256441E+02 0.46314693690E+02 0.29066721514E+02
 0.18428059651E+02 0.11950934667E+02 0.80732563572E+01 0.57188660671E+01 0.42535284384E+01
 0.33431935732E+01 0.28033084909E+01 0.25029176260E+01 0.23498895906E+01 0.23017847304E+01
 0.23498895906E+01 0.25029176260E+01 0.28033084909E+01 0.33431935732E+01 0.42535284384E+01
 0.57188660671E+01 0.80732563572E+01 0.11950934667E+02 0.18428059651E+02 0.29066721514E+02
 0.46314693690E+02 0.76829256441E+02 0.12609746767E+03 0.19227783014E+03 0.26552057284E+03
 0.33159198581E+03 0.37711737504E+03 0.45632518667E+03 0.43786328138E+03 0.38569401970E+03
 0.30949065565E+03 0.22427873691E+03 0.14648843156E+03 0.87976643804E+02 0.51616073377E+02
 0.31676429125E+02 0.19825080512E+02 0.12665923187E+02 0.84214206386E+01 0.58645367847E+01
 0.42764011605E+01 0.32840765202E+01 0.26878072521E+01 0.23498895906E+01 0.21746926793E+01
 0.21190956127E+01 0.21746926793E+01 0.23498895906E+01 0.26878072521E+01 0.32840765202E+01
 0.42764011605E+01 0.58645367847E+01 0.84214206386E+01 0.12665923187E+02 0.19825080512E+02
 0.31676429125E+02 0.51616073377E+02 0.87976643804E+02 0.14648843156E+03 0.22427873691E+03
 0.30949065565E+03 0.38569401970E+03 0.43786328138E+03 0.47953992465E+03 0.46025135223E+03
 0.40568155115E+03 0.32579818428E+03 0.23620955906E+03 0.15413893087E+03 0.92182669286E+02
 0.53608320881E+02 0.32620658839E+02 0.20329517303E+02 0.12924159490E+02 0.85483358359E+01
 0.59198223487E+01 0.42887906337E+01 0.32681048367E+01 0.26524813152E+01 0.23017847304E+01
 0.21190956127E+01 0.20609775988E+01 0.21190956127E+01 0.23017847304E+01 0.26524813152E+01
 0.32681048367E+01 0.42887906337E+01 0.59198223487E+01 0.85483358359E+01 0.12924159490E+02
 0.20329517303E+02 0.32620658839E+02 0.53608320881E+02 0.92182669286E+02 0.15413893087E+03
 0.23620955906E+03 0.32579818428E+03 0.40568155115E+03 0.46025135223E+03 0.45632518667E+03
 0.43786328138E+03 0.38569401970E+03 0.30949065565E+03 0.22427873691E+03 0.14648843156E+03
 0.87976643804E+02 0.51616073377E+02 0.31676429125E+02 0.19825080512E+02 0.12665923187E+02
 0.84214206386E+01 0.58645367847E+01 0.42764011605E+01 0.32840765202E+01 0.26878072521E+01
 0.23498895906E+01 0.21746926793E+01 0.21190956127E+01 0.21746926793E+01 0.23498895906E+01
 0.26878072521E+01 0.32840765202E+01 0.42764011605E+01 0.58645367847E+01 0.84214206386E+01
 0.12665923187E+02 0.19825080512E+02 0.31676429125E+02 0.51616073377E+02 0.87976643804E+02
 0.14648843156E+03 0.22427873691E+03 0.30949065565E+03 0.38569401970E+03 0.43786328138E+03
 0.39328453076E+03 0.37711737504E+03 0.33159198581E+03 0.26552057284E+03 0.19227783014E+03
 0.12609746767E+03 0.76829256441E+02 0.46314693690E+02 0.29066721514E+02 0.18428059651E+02
 0.11950934667E+02 0.80732563572E+01 0.57188660671E+01 0.42535284384E+01 0.33431935732E+01
 0.28033084909E+01 0.25029176260E+01 0.23498895906E+01 0.23017847304E+01 0.23498895906E+01
 0.25029176260E+01 0.28033084909E+01 0.33431935732E+01 0.42535284384E+01 0.57188660671E+01
 0.80732563572E+01 0.11950934667E+02 0.18428059651E+02 0.29066721514E+02 0.46314693690E+02
 0.76829256441E+02 0.12609746767E+03 0.19227783014E+03 0.26552057284E+03 0.33159198581E+03
 0.37711737504E+03 0.30740135275E+03 0.29449717400E+03 0.25836467965E+03 0.20647135806E+03
 0.14975230843E+03 0.99330309244E+02 0.62326152227E+02 0.39296691910E+02 0.25370637322E+02
 0.16444901858E+02 0.10939882581E+02 0.75954551119E+01 0.55442232816E+01 0.42689135138E+01
 0.34891361630E+01 0.30411883812E+01 0.28033084909E+01 0.26878072521E+01 0.26524813152E+01
 0.26878072521E+01 0.28033084909E+01 0.30411883812E+01 0.34891361630E+01 0.42689135138E+01
 0.55442232816E+01 0.75954551119E+01 0.10939882581E+02 0.16444901858E+02 0.25370637322E+02
 0.39296691910E+02 0.62326152227E+02 0.99330309244E+02 0.14975230843E+03 0.20647135806E+03
 0.25836467965E+03 0.29449717400E+03 0.21908135656E+03 0.20974471716E+03 0.18379722263E+03
 0.14704713636E+03 0.10761459836E+03 0.73236104228E+02 0.48245642437E+02 0.32092001687E+02
 0.21314957622E+02 0.14267545735E+02 0.98473785741E+01 0.71195777010E+01 0.54378856985E+01
 0.44083634996E+01 0.38064268837E+01 0.34891361630E+01 0.33431935732E+01 0.32840765202E+01
 0.32681048367E+01 0.32840765202E+01 0.33431935732E+01 0.34891361630E+01 0.38064268837E+01
 0.44083634996E+01 0.54378856985E+01 0.71195777010E+01 0.98473785741E+01 0.14267545735E+02
 0.21314957622E+02 0.32092001687E+02 0.48245642437E+02 0.73236104228E+02 0.10761459836E+03
 0.14704713636E+03 0.18379722263E+03 0.20974471716E+03 0.14469077219E+03 0.13859447719E+03
 0.12179934863E+03 0.98384343368E+02 0.73734351488E+02 0.52521940757E+02 0.36786639262E+02
 0.25510488527E+02 0.17546082915E+02 0.12259687108E+02 0.88878119857E+01 0.67897739032E+01
 0.55160898543E+01 0.47814402800E+01 0.44083634996E+01 0.42689135138E+01 0.42535284384E+01
 0.42764011605E+01 0.42887906337E+01 0.42764011605E+01 0.42535284384E+01 0.42689135138E+01
 0.44083634996E+01 0.47814402800E+01 0.55160898543E+01 0.67897739032E+01 0.88878119857E+01
 0.12259687108E+02 0.17546082915E+02 0.25510488527E+02 0.36786639262E+02 0.52521940757E+02
 0.73734351488E+02 0.98384343368E+02 0.12179934863E+03 0.13859447719E+03 0.92109447732E+02
 0.88493953143E+02 0.78610258797E+02 0.64995017506E+02 0.50758710146E+02 0.38237325927E+02
 0.28039782757E+02 0.20140671989E+02 0.14490207464E+02 0.10684306076E+02 0.82379333385E+01
 0.67425399157E+01 0.59025707659E+01 0.55160898543E+01 0.54378856985E+01 0.55442232816E+01
 0.57188660671E+01 0.58645367847E+01 0.59198223487E+01 0.58645367847E+01 0.57188660671E+01
 0.55442232816E+01 0.54378856985E+01 0.55160898543E+01 0.59025707659E+01 0.67425399157E+01
 0.82379333385E+01 0.10684306076E+02 0.14490207464E+02 0.20140671989E+02 0.28039782757E+02
 0.38237325927E+02 0.50758710146E+02 0.64995017506E+02 0.78610258797E+02 0.88493953143E+02
 0.60739134350E+02 0.58684928435E+02 0.53067541681E+02 0.45260503300E+02 0.36782659968E+02
 0.28665784974E+02 0.21696072555E+02 0.16261925878E+02 0.12340804597E+02 0.96920713612E+01
 0.80291368166E+01 0.71076968499E+01 0.67425399157E+01 0.67897739032E+01 0.71195777010E+01
 0.75954551119E+01 0.80732563572E+01 0.84214206386E+01 0.85483358359E+01 0.84214206386E+01
 0.80732563572E+01 0.75954551119E+01 0.71195777010E+01 0.67897739032E+01 0.67425399157E+01
 0.71076968499E+01 0.80291368166E+01 0.96920713612E+01 0.12340804597E+02 0.16261925878E+02
 0.21696072555E+02 0.28665784974E+02 0.36782659968E+02 0.45260503300E+02 0.53067541681E+02
 0.58684928435E+02 0.44888395200E+02 0.43549077992E+02 0.39818555662E+02 0.34455226806E+02
 0.28434129347E+02 0.22650918189E+02 0.17711662968E+02 0.13876604258E+02 0.11138604345E+02
 0.93566958386E+01 0.83659617967E+01 0.80291368166E+01 0.82379333385E+01 0.88878119857E+01
 0.98473785741E+01 0.10939882581E+02 0.11950934667E+02 0.12665923187E+02 0.12924159490E+02
 0.12665923187E+02 0.11950934667E+02 0.10939882581E+02 0.98473785741E+01 0.88878119857E+01
 0.82379333385E+01 0.80291368166E+01 0.83659617967E+01 0.93566958386E+01 0.11138604345E+02
 0.13876604258E+02 0.17711662968E+02 0.22650918189E+02 0.28434129347E+02 0.34455226806E+02
 0.39818555662E+02 0.43549077992E+02 0.38728003591E+02 0.37583704800E+02 0.34402825185E+02
 0.29851683138E+02 0.24783181942E+02 0.19975066331E+02 0.15946900815E+02 0.12916841370E+02
 0.10879176754E+02 0.97284159646E+01 0.93566958386E+01 0.96920713612E+01 0.10684306076E+02
 0.12259687108E+02 0.14267545735E+02 0.16444901858E+02 0.18428059651E+02 0.19825080512E+02
 0.20329517303E+02 0.19825080512E+02 0.18428059651E+02 0.16444901858E+02 0.14267545735E+02
 0.12259687108E+02 0.10684306076E+02 0.96920713612E+01 0.93566958386E+01 0.97284159646E+01
 0.10879176754E+02 0.12916841370E+02 0.15946900815E+02 0.19975066331E+02 0.24783181942E+02
 0.29851683138E+02 0.34402825185E+02 0.37583704800E+02 0.43023328134E+02 0.41306804464E+02
 0.36885421056E+02 0.31356822216E+02 0.25817413959E+02 0.20644215037E+02 0.16414413691E+02
 0.13401409813E+02 0.11598065817E+02 0.10879176754E+02 0.11138604345E+02 0.12340804597E+02
 0.14490207464E+02 0.17546082915E+02 0.21314957622E+02 0.25370637322E+02 0.29066721514E+02
 0.31676429125E+02 0.32620658839E+02 0.31676429125E+02 0.29066721514E+02 0.25370637322E+02
 0.21314957622E+02 0.17546082915E+02 0.14490207464E+02 0.12340804597E+02 0.11138604345E+02
 0.10879176754E+02 0.11598065817E+02 0.13401409813E+02 0.16414413691E+02 0.20644215037E+02
 0.25817413959E+02 0.31356822216E+02 0.36885421056E+02 0.41306804464E+02 0.78267401092E+02
 0.73533458230E+02 0.61264817442E+02 0.46216042862E+02 0.33338103934E+02 0.24901852953E+02
 0.19322647448E+02 0.15479802558E+02 0.13401409813E+02 0.12916841370E+02 0.13876604258E+02
 0.16261925878E+02 0.20140671989E+02 0.25510488527E+02 0.32092001687E+02 0.39296691910E+02
 0.46314693690E+02 0.51616073377E+02 0.53608320881E+02 0.51616073377E+02 0.46314693690E+02
 0.39296691910E+02 0.32092001687E+02 0.25510488527E+02 0.20140671989E+02 0.16261925878E+02
 0.13876604258E+02 0.12916841370E+02 0.13401409813E+02 0.15479802558E+02 0.19322647448E+02
 0.24901852953E+02 0.33338103934E+02 0.46216042862E+02 0.61264817442E+02 0.73533458230E+02
 0.17122512562E+03 0.16049695718E+03 0.13195635069E+03 0.94990260820E+02 0.60684259419E+02
 0.36933555201E+02 0.24941540420E+02 0.19322647448E+02 0.16414413691E+02 0.15946900815E+02
 0.17711662968E+02 0.21696072555E+02 0.28039782757E+02 0.36786639262E+02 0.48245642437E+02
 0.62326152227E+02 0.76829256441E+02 0.87976643804E+02 0.92182669286E+02 0.87976643804E+02
 0.76829256441E+02 0.62326152227E+02 0.48245642437E+02 0.36786639262E+02 0.28039782757E+02
 0.21696072555E+02 0.17711662968E+02 0.15946900815E+02 0.16414413691E+02 0.19322647448E+02
 0.24941540420E+02 0.36933555201E+02 0.60684259419E+02 0.94990260820E+02 0.13195635069E+03
 0.16049695718E+03 0.33342339331E+03 0.31411572576E+03 0.26178882107E+03 0.19127995657E+03
 0.12134366060E+03 0.67659300221E+02 0.36933555201E+02 0.24901852953E+02 0.20644215037E+02
 0.19975066331E+02 0.22650918189E+02 0.28665784974E+02 0.38237325927E+02 0.52521940757E+02
 0.73236104228E+02 0.99330309244E+02 0.12609746767E+03 0.14648843156E+03 0.15413893087E+03
 0.14648843156E+03 0.12609746767E+03 0.99330309244E+02 0.73236104228E+02 0.52521940757E+02
 0.38237325927E+02 0.28665784974E+02 0.22650918189E+02 0.19975066331E+02 0.20644215037E+02
 0.24901852953E+02 0.36933555201E+02 0.67659300221E+02 0.12134366060E+03 0.19127995657E+03
 0.26178882107E+03 0.31411572576E+03 0.55228849771E+03 0.52305134499E+03 0.44277176557E+03
 0.33160407038E+03 0.21628431291E+03 0.12134366060E+03 0.60684259419E+02 0.33338103934E+02
 0.25817413959E+02 0.24783181942E+02 0.28434129347E+02 0.36782659968E+02 0.50758710146E+02
 0.73734351488E+02 0.10761459836E+03 0.14975230843E+03 0.19227783014E+03 0.22427873691E+03
 0.23620955906E+03 0.22427873691E+03 0.19227783014E+03 0.14975230843E+03 0.10761459836E+03
 0.73734351488E+02 0.50758710146E+02 0.36782659968E+02 0.28434129347E+02 0.24783181942E+02
 0.25817413959E+02 0.33338103934E+02 0.60684259419E+02 0.12134366060E+03 0.21628431291E+03
 0.33160407038E+03 0.44277176557E+03 0.52305134499E+03 0.79306409489E+03 0.75420209639E+03
 0.64646946810E+03 0.49434950692E+03 0.33160407038E+03 0.19127995657E+03 0.94990260820E+02
 0.46216042862E+02 0.31356822216E+02 0.29851683138E+02 0.34455226806E+02 0.45260503300E+02
 0.64995017506E+02 0.98384343368E+02 0.14704713636E+03 0.20647135806E+03 0.26552057284E+03
 0.30949065565E+03 0.32579818428E+03 0.30949065565E+03 0.26552057284E+03 0.20647135806E+03
 0.14704713636E+03 0.98384343368E+02 0.64995017506E+02 0.45260503300E+02 0.34455226806E+02
 0.29851683138E+02 0.31356822216E+02 0.46216042862E+02 0.94990260820E+02 0.19127995657E+03
 0.33160407038E+03 0.49434950692E+03 0.64646946810E+03 0.75420209639E+03 0.10098744532E+04
 0.96320336866E+03 0.83293530314E+03 0.64646946810E+03 0.44277176557E+03 0.26178882107E+03
 0.13195635069E+03 0.61264817442E+02 0.36885421056E+02 0.34402825185E+02 0.39818555662E+02
 0.53067541681E+02 0.78610258797E+02 0.12179934863E+03 0.18379722263E+03 0.25836467965E+03
 0.33159198581E+03 0.38569401970E+03 0.40568155115E+03 0.38569401970E+03 0.33159198581E+03
 0.25836467965E+03 0.18379722263E+03 0.12179934863E+03 0.78610258797E+02 0.53067541681E+02
 0.39818555662E+02 0.34402825185E+02 0.36885421056E+02 0.61264817442E+02 0.13195635069E+03
 0.26178882107E+03 0.44277176557E+03 0.64646946810E+03 0.83293530314E+03 0.96320336866E+03
 0.11596764027E+04 0.11080132665E+04 0.96320336866E+03 0.75420209639E+03 0.52305134499E+03
 0.31411572576E+03 0.16049695718E+03 0.73533458230E+02 0.41306804464E+02 0.37583704800E+02
 0.43549077992E+02 0.58684928435E+02 0.88493953143E+02 0.13859447719E+03 0.20974471716E+03
 0.29449717400E+03 0.37711737504E+03 0.43786328138E+03 0.46025135223E+03 0.43786328138E+03
 0.37711737504E+03 0.29449717400E+03 0.20974471716E+03 0.13859447719E+03 0.88493953143E+02
 0.58684928435E+02 0.43549077992E+02 0.37583704800E+02 0.41306804464E+02 0.73533458230E+02
 0.16049695718E+03 0.31411572576E+03 0.52305134499E+03 0.75420209639E+03 0.96320336866E+03
 0.11080132665E+04 0.11596764027E+04 0.11080132665E+04 0.96320336866E+03 0.75420209639E+03
 0.52305134499E+03 0.31411572576E+03 0.16049695718E+03 0.73533458230E+02 0.41306804464E+02
 0.37583704800E+02 0.43549077992E+02 0.58684928435E+02 0.88493953143E+02 0.13859447719E+03
 0.20974471716E+03 0.29449717400E+03 0.37711737504E+03 0.43786328138E+03 0.46025135223E+03
 0.43786328138E+03 0.37711737504E+03 0.29449717400E+03 0.20974471716E+03 0.13859447719E+03
 0.88493953143E+02 0.58684928435E+02 0.43549077992E+02 0.37583704800E+02 0.41306804464E+02
 0.73533458230E+02 0.16049695718E+03 0.31411572576E+03 0.52305134499E+03 0.75420209639E+03
 0.96320336866E+03 0.11080132665E+04 0.11080132665E+04 0.10580373371E+04 0.91815464046E+03
 0.71682262389E+03 0.49506639006E+03 0.29575668402E+03 0.15039038101E+03 0.69131969303E+02
 0.39717575931E+02 0.36481958014E+02 0.42258973008E+02 0.56725027837E+02 0.85043755895E+02
 0.13275290242E+03 0.20075749756E+03 0.28202735871E+03 0.36144840442E+03 0.41993757903E+03
 0.44151139085E+03 0.41993757903E+03 0.36144840442E+03 0.28202735871E+03 0.20075749756E+03
 0.13275290242E+03 0.85043755895E+02 0.56725027837E+02 0.42258973008E+02 0.36481958014E+02
 0.39717575931E+02 0.69131969303E+02 0.15039038101E+03 0.29575668402E+03 0.49506639006E+03
 0.71682262389E+03 0.91815464046E+03 0.10580373371E+04 0.96320336866E+03 0.91815464046E+03
 0.79258752001E+03 0.61333919417E+03 0.41833101260E+03 0.24607710802E+03 0.12355438501E+03
 0.57750587359E+02 0.35615091226E+02 0.33418938594E+02 0.38664312097E+02 0.51363235892E+02
 0.75620405916E+02 0.11668293075E+03 0.17582432833E+03 0.24717839187E+03 0.31741770450E+03
 0.36939422005E+03 0.38861152622E+03 0.36939422005E+03 0.31741770450E+03 0.24717839187E+03
 0.17582432833E+03 0.11668293075E+03 0.75620405916E+02 0.51363235892E+02 0.38664312097E+02
 0.33418938594E+02 0.35615091226E+02 0.57750587359E+02 0.12355438501E+03 0.24607710802E+03
 0.41833101260E+03 0.61333919417E+03 0.79258752001E+03 0.91815464046E+03 0.75420209639E+03
 0.71682262389E+03 0.61333919417E+03 0.46761593709E+03 0.31237408157E+03 0.17935347934E+03
 0.88938014751E+02 0.43851898341E+02 0.30436247168E+02 0.29034920952E+02 0.33494903151E+02
 0.43898080169E+02 0.62655933030E+02 0.94336932008E+02 0.14062242846E+03 0.19730362264E+03
 0.25375481347E+03 0.29585396949E+03 0.31147932657E+03 0.29585396949E+03 0.25375481347E+03
 0.19730362264E+03 0.14062242846E+03 0.94336932008E+02 0.62655933030E+02 0.43898080169E+02
 0.33494903151E+02 0.29034920952E+02 0.30436247168E+02 0.43851898341E+02 0.88938014751E+02
 0.17935347934E+03 0.31237408157E+03 0.46761593709E+03 0.61333919417E+03 0.71682262389E+03
 0.52305134499E+03 0.49506639006E+03 0.41833101260E+03 0.31237408157E+03 0.20296687494E+03
 0.11353371756E+03 0.57034454074E+02 0.32016709581E+02 0.25121646800E+02 0.24149297452E+02
 0.27688161796E+02 0.35748861054E+02 0.49104020456E+02 0.70883102364E+02 0.10300487735E+03
 0.14303955001E+03 0.18352405051E+03 0.21403215161E+03 0.22541451499E+03 0.21403215161E+03
 0.18352405051E+03 0.14303955001E+03 0.10300487735E+03 0.70883102364E+02 0.49104020456E+02
 0.35748861054E+02 0.27688161796E+02 0.24149297452E+02 0.25121646800E+02 0.32016709581E+02
 0.57034454074E+02 0.11353371756E+03 0.20296687494E+03 0.31237408157E+03 0.41833101260E+03
 0.49506639006E+03 0.31411572576E+03 0.29575668402E+03 0.24607710802E+03 0.17935347934E+03
 0.11353371756E+03 0.63450291523E+02 0.35172563703E+02 0.24202963238E+02 0.20132095830E+02
 0.19509516652E+02 0.22105110012E+02 0.27913497657E+02 0.37138501897E+02 0.50735428893E+02
 0.70343491595E+02 0.95042886721E+02 0.12041055385E+03 0.13975717689E+03 0.14702030882E+03
 0.13975717689E+03 0.12041055385E+03 0.95042886721E+02 0.70343491595E+02 0.50735428893E+02
 0.37138501897E+02 0.27913497657E+02 0.22105110012E+02 0.19509516652E+02 0.20132095830E+02
 0.24202963238E+02 0.35172563703E+02 0.63450291523E+02 0.11353371756E+03 0.17935347934E+03
 0.24607710802E+03 0.29575668402E+03 0.16049695718E+03 0.15039038101E+03 0.12355438501E+03
 0.88938014751E+02 0.57034454074E+02 0.35172563703E+02 0.24197968830E+02 0.18838039418E+02
 0.16051325351E+02 0.15616021097E+02 0.17329273039E+02 0.21179851370E+02 0.27303125750E+02
 0.35731386758E+02 0.46643565365E+02 0.59968315290E+02 0.73672608562E+02 0.84206094970E+02
 0.88181321497E+02 0.84206094970E+02 0.73672608562E+02 0.59968315290E+02 0.46643565365E+02
 0.35731386758E+02 0.27303125750E+02 0.21179851370E+02 0.17329273039E+02 0.15616021097E+02
 0.16051325351E+02 0.18838039418E+02 0.24197968830E+02 0.35172563703E+02 0.57034454074E+02
 0.88938014751E+02 0.12355438501E+03 0.15039038101E+03 0.73533458230E+02 0.69131969303E+02
 0.57750587359E+02 0.43851898341E+02 0.32016709581E+02 0.24202963238E+02 0.18838039418E+02
 0.15139130042E+02 0.13142029619E+02 0.12681038879E+02 0.13613241247E+02 0.15921339327E+02
 0.19670055549E+02 0.24855593249E+02 0.31207496256E+02 0.38116456346E+02 0.44787740798E+02
 0.49807964476E+02 0.51692004460E+02 0.49807964476E+02 0.44787740798E+02 0.38116456346E+02
 0.31207496256E+02 0.24855593249E+02 0.19670055549E+02 0.15921339327E+02 0.13613241247E+02
 0.12681038879E+02 0.13142029619E+02 0.15139130042E+02 0.18838039418E+02 0.24202963238E+02
 0.32016709581E+02 0.43851898341E+02 0.57750587359E+02 0.69131969303E+02 0.41306804464E+02
 0.39717575931E+02 0.35615091226E+02 0.30436247168E+02 0.25121646800E+02 0.20132095830E+02
 0.16051325351E+02 0.13142029619E+02 0.11398524635E+02 0.10702497264E+02 0.10953645541E+02
 0.12118310736E+02 0.14199777731E+02 0.17156702043E+02 0.20800293580E+02 0.24718102350E+02
 0.28286476526E+02 0.30805092907E+02 0.31715773268E+02 0.30805092907E+02 0.28286476526E+02
 0.24718102350E+02 0.20800293580E+02 0.17156702043E+02 0.14199777731E+02 0.12118310736E+02
 0.10953645541E+02 0.10702497264E+02 0.11398524635E+02 0.13142029619E+02 0.16051325351E+02
 0.20132095830E+02 0.25121646800E+02 0.30436247168E+02 0.35615091226E+02 0.39717575931E+02
 0.37583704800E+02 0.36481958014E+02 0.33418938594E+02 0.29034920952E+02 0.24149297452E+02