    5    5   99    2
  0.1186380E+02  0.3900000E-09  0.3900000E-09  0.3900000E-09  0.5000000E-15
  1.000000000000000E-004
  CAR 
 unknown system                          
     42     10     28
 
  0.8333333E-01  0.8333333E-01  0.8333333E-01  0.3703704E-01
    1      -54.538029    -50.242121   1.000000   1.000000
    2      -54.538029    -50.242121   1.000000   1.000000
    3      -54.537784    -50.241966   1.000000   1.000000
    4      -29.903816    -29.899604   1.000000   1.000000
    5      -15.295782    -15.165175   1.000000   1.000000
    6      -14.094338    -13.730492   1.000000   1.000000
    7      -14.094338    -13.730492   1.000000   1.000000
    8      -11.941369    -11.924095   1.000000   1.000000
    9      -11.941369    -11.924095   1.000000   1.000000
   10      -11.880983    -11.870227   1.000000   1.000000
   11       -4.248327     -1.435642   1.000000   1.000000
   12       -4.248327     -1.229684   1.000000   1.000000
   13       -4.241168     -1.229684   1.000000   1.000000
   14       -3.050448      1.208554   1.000000   1.000000
   15       -3.050448      1.208554   1.000000   1.000000
   16       -1.536946      1.579958   1.000000   1.000000
   17       -0.809169      1.637020   1.000000   1.000000
   18       -0.809169      1.916867   1.000000   1.000000
   19        1.238525      1.916868   1.000000   1.000000
   20        1.238525      3.950164   1.000000   0.000000
   21        1.451817      3.995246   1.000000   0.000000
   22        1.630325      3.995247   1.000000   0.000000
   23        2.071907      4.522637   1.000276   0.000000
   24        2.071907      4.522637   1.039590   0.000000
   25        8.543653      8.598275   0.000000   0.000000
   26        8.543665      8.598297   0.000000   0.000000
   27        9.186819      9.354021   0.000000   0.000000
   28       10.828120     11.091564   0.000000   0.000000
 
  0.2500000E+00  0.8333333E-01  0.8333333E-01  0.1111111E+00
    1      -54.538562    -50.243075   1.000000   1.000000
    2      -54.537940    -50.242037   1.000000   1.000000
    3      -54.537889    -50.242014   1.000000   1.000000
    4      -29.893487    -29.889353   1.000000   1.000000
    5      -15.269841    -15.134754   1.000000   1.000000
    6      -14.159495    -13.906230   1.000000   1.000000
    7      -14.067237    -13.698778   1.000000   1.000000
    8      -11.936933    -11.921835   1.000000   1.000000
    9      -11.893603    -11.875637   1.000000   1.000000
   10      -11.695265    -11.661288   1.000000   1.000000
   11       -4.377480     -1.838997   1.000000   1.000000
   12       -4.359358     -1.229031   1.000000   1.000000
   13       -4.247704     -1.193547   1.000000   1.000000
   14       -4.242920      0.508364   1.000000   1.000000
   15       -3.046657      0.592145   1.000000   1.000000
   16       -1.547613      1.135925   1.000000   1.000000
   17       -0.744665      1.509425   1.000000   1.000000
   18        0.041808      1.594302   1.000000   1.000000
   19        0.892870      1.729991   1.000000   1.000000
   20        1.225868      4.002641   1.000000   0.000000
   21        1.239024      4.444875   1.000000   0.000000
   22        1.473265      4.531456   1.000000   0.000000
   23        1.959179      4.612099   1.003265   0.000000
   24        2.223251      5.396978   0.931049   0.000000
   25        9.241246      9.317883   0.000000   0.000000
   26        9.314162      9.372667   0.000000   0.000000
   27       10.178681     10.328141   0.000000   0.000000
   28       10.961199     11.107264   0.000000   0.000000
 
  0.4166667E+00  0.8333333E-01  0.8333333E-01  0.1111111E+00
    1      -54.538937    -50.243860   1.000000   1.000000
    2      -54.537666    -50.241834   1.000000   1.000000
    3      -54.537581    -50.241746   1.000000   1.000000
    4      -29.883109    -29.879053   1.000000   1.000000
    5      -15.293015    -15.135642   1.000000   1.000000
    6      -14.129879    -13.997436   1.000000   1.000000
    7      -14.038544    -13.665196   1.000000   1.000000
    8      -11.932786    -11.920051   1.000000   1.000000
    9      -11.855778    -11.842567   1.000000   1.000000
   10      -11.531769    -11.489735   1.000000   1.000000
   11       -5.098338     -2.198412   1.000000   1.000000
   12       -4.489422     -1.202226   1.000000   1.000000
   13       -4.461239     -1.150105   1.000000   1.000000
   14       -4.247730     -0.181323   1.000000   1.000000
   15       -3.045792      0.182569   1.000000   1.000000
   16       -1.466396      0.961665   1.000000   1.000000
   17       -0.715313      1.253053   1.000000   1.000000
   18        0.074677      1.327721   1.000000   1.000000
   19        0.642771      1.583694   1.000000   1.000000
   20        1.128364      4.032110   1.000000   0.000000
   21        1.474451      4.497608   1.000000   0.000000
   22        1.555356      5.003988   1.000000   0.000000
   23        1.760473      5.022873   1.006731   0.000000
   24        2.225331      5.970286   0.790838   0.000000
   25       10.017340     10.100123   0.000000   0.000000
   26       10.218396     10.280365   0.000000   0.000000
   27       11.081922     11.107912   0.000000   0.000000
   28       11.596427     11.840014   0.000000   0.000000
 
  0.2500000E+00  0.2500000E+00  0.8333333E-01  0.1111111E+00
    1      -54.538671    -50.243105   1.000000   1.000000
    2      -54.538540    -50.243022   1.000000   1.000000
    3      -54.537791    -50.241907   1.000000   1.000000
    4      -29.883794    -29.879728   1.000000   1.000000
    5      -15.146580    -15.017269   1.000000   1.000000
    6      -14.241976    -14.017658   1.000000   1.000000
    7      -14.064451    -13.751757   1.000000   1.000000
    8      -11.923162    -11.908143   1.000000   1.000000
    9      -11.820857    -11.779455   1.000000   1.000000
   10      -11.665016    -11.645272   1.000000   1.000000
   11       -4.536424     -2.144778   1.000000   1.000000
   12       -4.475296     -1.340193   1.000000   1.000000
   13       -4.384333     -1.120577   1.000000   1.000000
   14       -4.369371     -0.353868   1.000000   1.000000
   15       -3.905209      0.458752   1.000000   1.000000
   16       -1.638259      0.628610   1.000000   1.000000
   17       -0.237417      1.414382   1.000000   1.000000
   18        0.544144      1.479531   1.000000   1.000000
   19        0.630800      1.958185   1.000000   1.000000
   20        0.855149      4.483079   1.000000   0.000000
   21        1.164560      4.594721   1.000000   0.000000
   22        1.685897      4.714771   1.000000   0.000000
   23        1.896005      4.931364   1.026438   0.000000
   24        2.775042      6.016483   0.139946   0.000000
   25        9.678926      9.783061   0.000000   0.000000
   26       10.050486     10.115596   0.000000   0.000000
   27       10.561086     10.661142   0.000000   0.000000
   28       11.490439     11.645369   0.000000   0.000000
 
  0.4166667E+00  0.2500000E+00  0.8333333E-01  0.2222222E+00
    1      -54.539054    -50.243917   1.000000   1.000000
    2      -54.538470    -50.242930   1.000000   1.000000
    3      -54.537797    -50.241872   1.000000   1.000000
    4      -29.874067    -29.870066   1.000000   1.000000
    5      -15.057652    -14.908214   1.000000   1.000000
    6      -14.259181    -14.129721   1.000000   1.000000
    7      -14.062603    -13.760405   1.000000   1.000000
    8      -11.929354    -11.916539   1.000000   1.000000
    9      -11.760611    -11.739427   1.000000   1.000000
   10      -11.617753    -11.584860   1.000000   1.000000
   11       -5.141106     -2.460370   1.000000   1.000000
   12       -4.684840     -1.409093   1.000000   1.000000
   13       -4.492113     -1.024433   1.000000   1.000000
   14       -4.391644     -0.956593   1.000000   1.000000
   15       -4.084428      0.068118   1.000000   1.000000
   16       -1.530957      0.604400   1.000000   1.000000
   17       -0.029763      1.152461   1.000000   1.000000
   18        0.159332      1.374380   1.000000   1.000000
   19        0.694298      2.059872   1.000000   1.000000
   20        0.877100      4.549174   1.000000   0.000000
   21        1.341786      4.946435   1.000000   0.000000
   22        1.679437      5.015729   1.000000   0.000000
   23        1.953621      5.071819   1.048504   0.000000
   24        3.134299      6.641799  -0.031984   0.000000
   25       10.354782     10.450192   0.000000   0.000000
   26       10.911741     10.936058   0.000000   0.000000
   27       11.183080     11.277476   0.000000   0.000000
   28       11.834090     11.881915   0.000000   0.000000
 
  0.4166667E+00  0.4166667E+00  0.8333333E-01  0.1111111E+00
    1      -54.539038    -50.243875   1.000000   1.000000
    2      -54.538975    -50.243821   1.000000   1.000000
    3      -54.537564    -50.241663   1.000000   1.000000
    4      -29.864976    -29.861034   1.000000   1.000000
    5      -14.724085    -14.567428   1.000000   1.000000
    6      -14.371206    -14.255395   1.000000   1.000000
    7      -14.194979    -13.972260   1.000000   1.000000
    8      -11.891818    -11.882991   1.000000   1.000000
    9      -11.711151    -11.683510   1.000000   1.000000
   10      -11.675515    -11.654124   1.000000   1.000000
   11       -5.320539     -2.799253   1.000000   1.000000
   12       -4.874341     -1.571819   1.000000   1.000000
   13       -4.763370     -1.506390   1.000000   1.000000
   14       -4.519023     -0.735643   1.000000   1.000000
   15       -4.514622     -0.029147   1.000000   1.000000
   16       -1.422585      0.112866   1.000000   1.000000
   17       -0.006213      1.223309   1.000000   1.000000
   18        0.519802      1.300030   1.000000   1.000000
   19        0.817308      2.504805   1.000000   1.000000
   20        0.841890      4.977940   1.000000   0.000000
   21        1.266648      5.019204   1.000000   0.000000
   22        1.427571      5.106287   1.000000   0.000000
   23        2.308555      5.219214   1.001395   0.000000
   24        3.863042      7.383108   0.000000   0.000000
   25       10.640674     10.681260   0.000000   0.000000
   26       10.911670     10.989066   0.000000   0.000000
   27       11.761122     11.875967   0.000000   0.000000
   28       11.834322     11.961289   0.000000   0.000000
 
  0.2500000E+00  0.2500000E+00  0.2500000E+00  0.3703704E-01
    1      -54.538502    -50.242958   1.000000   1.000000
    2      -54.538502    -50.242958   1.000000   1.000000
    3      -54.538388    -50.242861   1.000000   1.000000
    4      -29.874609    -29.870612   1.000000   1.000000
    5      -14.989258    -14.872228   1.000000   1.000000
    6      -14.153258    -13.918083   1.000000   1.000000
    7      -14.153258    -13.918083   1.000000   1.000000
    8      -11.931573    -11.899299   1.000000   1.000000
    9      -11.931573    -11.899299   1.000000   1.000000
   10      -11.624294    -11.607895   1.000000   1.000000
   11       -4.582108     -2.401202   1.000000   1.000000
   12       -4.504616     -1.305234   1.000000   1.000000
   13       -4.504616     -1.305234   1.000000   1.000000
   14       -4.462415     -0.441549   1.000000   1.000000
   15       -4.462415     -0.122953   1.000000   1.000000
   16       -2.462396     -0.122953   1.000000   1.000000
   17        0.344633      1.740076   1.000000   1.000000
   18        0.687751      1.740076   1.000000   1.000000
   19        0.687751      2.101043   1.000000   1.005843
   20        1.033289      4.725720   1.000000   0.000000
   21        1.033289      4.805548   1.000000   0.000000
   22        1.910715      4.805554   1.000000   0.000000
   23        2.712082      5.999407   0.568254   0.000000
   24        2.712083      5.999412   0.059981   0.000000
   25       10.173213     10.279233   0.000000   0.000000
   26       10.176972     10.282211   0.000000   0.000000
   27       10.453806     10.522574   0.000000   0.000000
   28       11.630901     11.730013   0.000000   0.000000
 
  0.4166667E+00  0.2500000E+00  0.2500000E+00  0.1111111E+00
    1      -54.539117    -50.243935   1.000000   1.000000
    2      -54.538401    -50.242854   1.000000   1.000000
    3      -54.538399    -50.242839   1.000000   1.000000
    4      -29.865403    -29.861480   1.000000   1.000000
    5      -14.833491    -14.699696   1.000000   1.000000
    6      -14.230962    -14.101698   1.000000   1.000000
    7      -14.053534    -13.804062   1.000000   1.000000
    8      -12.053104    -12.033732   1.000000   1.000000
    9      -11.828914    -11.799267   1.000000   1.000000
   10      -11.692328    -11.672483   1.000000   1.000000
   11       -5.166335     -2.706078   1.000000   1.000000
   12       -4.706101     -1.413076   1.000000   1.000000
   13       -4.591206     -1.260788   1.000000   1.000000
   14       -4.509627     -0.952466   1.000000   1.000000
   15       -4.475386     -0.476843   1.000000   1.000000
   16       -2.645957     -0.098282   1.000000   1.000000
   17        0.219597      1.738033   1.000000   1.000000
   18        0.636596      1.858950   1.000000   1.000000
   19        0.729977      2.190688   1.000000   1.048141
   20        1.093946      4.825578   1.000000   0.000000
   21        1.680580      5.087271   1.000000   0.000000
   22        2.073712      5.122879   1.000000   0.000000
   23        2.600791      5.963991   0.511011   0.000000
   24        3.257575      6.796947  -0.017504   0.000000
   25       10.571919     10.658597   0.000000   0.000000
   26       10.697198     10.781485   0.000000   0.000000
   27       10.750508     10.860587   0.000000   0.000000
   28       11.343460     11.404720   0.000000   0.000000
 
  0.4166667E+00  0.4166667E+00  0.2500000E+00  0.1111111E+00
    1      -54.539172    -50.243951   1.000000   1.000000
    2      -54.539024    -50.243843   1.000000   1.000000
    3      -54.538300    -50.242741   1.000000   1.000000
    4      -29.856697    -29.852843   1.000000   1.000000
    5      -14.518247    -14.388284   1.000000   1.000000
    6      -14.231785    -14.110177   1.000000   1.000000
    7      -14.104581    -13.918396   1.000000   1.000000
    8      -12.072900    -12.054901   1.000000   1.000000
    9      -11.926880    -11.899733   1.000000   1.000000
   10      -11.823552    -11.802519   1.000000   1.000000
   11       -5.318766     -3.054848   1.000000   1.000000
   12       -4.945325     -1.561907   1.000000   1.000000
   13       -4.791544     -1.249909   1.000000   1.000000
   14       -4.614051     -1.174810   1.000000   1.000000
   15       -4.609415     -0.486315   1.000000   1.000000
   16       -2.986397     -0.479186   1.000000   1.000000
   17        0.285289      1.954694   1.000000   1.000000
   18        0.693416      2.004981   1.000000   1.000000
   19        0.715798      2.540592   1.000000   0.805434
   20        1.703017      5.142796   1.000000   0.000000
   21        1.830494      5.162065   1.000000   0.000000
   22        2.347811      5.282889   1.000000   0.000000
   23        2.722795      6.301010   0.138247   0.000000
   24        3.855074      7.375098   0.000000   0.000000
   25       10.284743     10.358810   0.000000   0.000000
   26       10.622932     10.722984   0.000000   0.000000
   27       10.681744     10.796228   0.000000   0.000000
   28       11.516714     11.577144   0.000000   0.000000
 
  0.4166667E+00  0.4166667E+00  0.4166667E+00  0.3703704E-01
    1      -54.539162    -50.243912   1.000000   1.000000
    2      -54.539137    -50.243912   1.000000   1.000000
    3      -54.539137    -50.243911   1.000000   1.000000
    4      -29.848383    -29.844628   1.000000   1.000000
    5      -14.241154    -14.129266   1.000000   1.000000
    6      -14.063534    -13.932613   1.000000   1.000000
    7      -14.063534    -13.932613   1.000000   1.000000
    8      -12.169871    -12.146926   1.000000   1.000000
    9      -12.169871    -12.146926   1.000000   1.000000
   10      -12.051771    -12.028855   1.000000   1.000000
   11       -5.316907     -3.426042   1.000000   1.000000
   12       -5.316907     -1.550571   1.000000   1.000000
   13       -4.731635     -1.550571   1.000000   1.000000
   14       -4.692622     -0.893629   1.000000   1.000000
   15       -4.692622     -0.747944   1.000000   1.000000
   16       -3.664902     -0.747944   1.000000   1.000000
   17        0.574960      2.489614   1.000000   1.000000
   18        0.697733      2.489615   1.000000   1.000000
   19        0.697733      2.611711   1.000000   0.071963
   20        2.284982      5.340786   1.000000   0.000000
   21        2.284982      5.357200   1.000000   0.000000
   22        2.415099      5.357200   1.000000   0.000000
   23        3.836833      7.359681   0.000000   0.000000
   24        3.836833      7.359683   0.000000   0.000000
   25        9.850310      9.941457   0.000000   0.000000
   26        9.938861     10.022625   0.000000   0.000000
   27        9.939135     10.022723   0.000000   0.000000
   28       12.291986     12.323514   0.000000   0.000000
