<?xml version="1.0" encoding="ISO-8859-1"?>
<modeling>
 <generator>
  <i name="program" type="string">vasp </i>
  <i name="version" type="string">5.4.1  </i>
  <i name="subversion" type="string">24Jun15 (build Jan 06 2016 13:10:00) complex                          parallel </i>
  <i name="platform" type="string">IFC91_ompi </i>
  <i name="date" type="string">2016 02 25 </i>
  <i name="time" type="string">14:44:07 </i>
 </generator>
 <incar>
  <i type="string" name="PREC">normal</i>
  <i type="string" name="ALGO"> Fast</i>
  <i type="int" name="ISPIN">     2</i>
  <i type="int" name="NELM">   100</i>
  <i type="int" name="IBRION">     1</i>
  <i name="EDIFF">      0.00100000</i>
  <i name="EDIFFG">     -0.01000000</i>
  <i type="int" name="NSW">    99</i>
  <i type="int" name="ISIF">     0</i>
  <i name="ENCUT">    300.00000000</i>
  <i type="string" name="LREAL">Auto</i>
  <i type="int" name="ISMEAR">    -5</i>
  <i name="SIGMA">      0.05000000</i>
  <i type="int" name="LMAXMIX">     4</i>
  <i type="logical" name="LWAVE"> F  </i>
  <v type="int" name="KPOINT_BSE">    -1     0     0     0</v>
  <i type="int" name="NELM">   100</i>
  <i type="logical" name="LDAU"> T  </i>
  <v type="int" name="LDAUTYPE">     2</v>
  <v type="int" name="LDAUL">     0     2     0</v>
  <v name="LDAUU">      0.00000000      5.30000000      0.00000000</v>
  <v name="LDAUJ">      0.00000000      0.00000000      0.00000000</v>
  <i type="int" name="LDAUPRINT">     1</i>
 </incar>
 <kpoints>
  <generation param="Monkhorst-Pack">
   <v type="int" name="divisions">       6        6        6 </v>
   <v name="usershift">      0.00000000       0.00000000       0.00000000 </v>
   <v name="genvec1">      0.16666667       0.00000000       0.00000000 </v>
   <v name="genvec2">      0.00000000       0.16666667       0.00000000 </v>
   <v name="genvec3">      0.00000000       0.00000000       0.16666667 </v>
   <v name="shift">      0.50000000       0.50000000       0.50000000 </v>
  </generation>
  <varray name="kpointlist" >
   <v>       0.08333333       0.08333333       0.08333333 </v>
   <v>       0.25000000       0.08333333       0.08333333 </v>
   <v>       0.41666667       0.08333333       0.08333333 </v>
   <v>       0.25000000       0.25000000       0.08333333 </v>
   <v>       0.41666667       0.25000000       0.08333333 </v>
   <v>       0.41666667       0.41666667       0.08333333 </v>
   <v>       0.25000000       0.25000000       0.25000000 </v>
   <v>       0.41666667       0.25000000       0.25000000 </v>
   <v>       0.41666667       0.41666667       0.25000000 </v>
   <v>       0.41666667       0.41666667       0.41666667 </v>
  </varray>
  <varray name="weights" >
   <v>       0.03703704 </v>
   <v>       0.11111111 </v>
   <v>       0.11111111 </v>
   <v>       0.11111111 </v>
   <v>       0.22222222 </v>
   <v>       0.11111111 </v>
   <v>       0.03703704 </v>
   <v>       0.11111111 </v>
   <v>       0.11111111 </v>
   <v>       0.03703704 </v>
  </varray>
  <varray name="tetrahedronlist"  type="int" >
   <v type="int" >       24        1        2        2        4 </v>
   <v type="int" >       18        2        2        4        4 </v>
   <v type="int" >       12        2        4        4        7 </v>
   <v type="int" >       12        2        3        4        5 </v>
   <v type="int" >       24        2        4        4        5 </v>
   <v type="int" >       12        4        4        5        7 </v>
   <v type="int" >       24        3        4        5        5 </v>
   <v type="int" >       24        4        5        5        8 </v>
   <v type="int" >       24        4        5        7        8 </v>
   <v type="int" >       30        3        3        5        5 </v>
   <v type="int" >       36        3        5        5        5 </v>
   <v type="int" >       12        5        5        5        8 </v>
   <v type="int" >        6        5        5        8        8 </v>
   <v type="int" >       18        1        1        2        2 </v>
   <v type="int" >       24        1        2        2        2 </v>
   <v type="int" >       12        2        2        2        4 </v>
   <v type="int" >       12        4        5        6        7 </v>
   <v type="int" >       12        5        6        7        8 </v>
   <v type="int" >       12        6        7        8        9 </v>
   <v type="int" >       24        5        5        6        8 </v>
   <v type="int" >       12        5        6        6        8 </v>
   <v type="int" >       12        6        6        8        9 </v>
   <v type="int" >       12        5        6        8        8 </v>
   <v type="int" >       12        6        8        8        9 </v>
   <v type="int" >       12        6        8        9        9 </v>
   <v type="int" >       12        5        6        8        9 </v>
   <v type="int" >       12        5        7        8        8 </v>
   <v type="int" >       24        5        8        8        9 </v>
   <v type="int" >       12        2        3        4        7 </v>
   <v type="int" >       12        3        4        5        7 </v>
   <v type="int" >       12        3        5        7        8 </v>
   <v type="int" >       12        2        2        3        4 </v>
   <v type="int" >       12        2        3        3        4 </v>
   <v type="int" >       12        3        3        4        5 </v>
   <v type="int" >       12        2        3        4        4 </v>
   <v type="int" >       12        3        4        4        5 </v>
   <v type="int" >       12        6        6        6        9 </v>
   <v type="int" >       12        6        6        9        9 </v>
   <v type="int" >       12        6        9        9        9 </v>
   <v type="int" >       12        5        5        6        9 </v>
   <v type="int" >       12        5        6        6        9 </v>
   <v type="int" >       12        5        6        9        9 </v>
   <v type="int" >       12        5        5        8        9 </v>
   <v type="int" >       12        5        8        9        9 </v>
   <v type="int" >       12        3        3        5        8 </v>
   <v type="int" >       12        3        5        5        8 </v>
   <v type="int" >       12        3        5        8        8 </v>
   <v type="int" >       24        3        3        3        5 </v>
   <v type="int" >       12        4        5        6        9 </v>
   <v type="int" >       12        4        5        8        9 </v>
   <v type="int" >       12        4        7        8        9 </v>
   <v type="int" >       12        2        3        5        8 </v>
   <v type="int" >       12        2        4        5        8 </v>
   <v type="int" >       12        2        4        7        8 </v>
   <v type="int" >       12        2        3        3        5 </v>
   <v type="int" >       12        2        2        3        5 </v>
   <v type="int" >       12        2        2        4        5 </v>
   <v type="int" >       12        2        3        5        5 </v>
   <v type="int" >       12        2        4        5        5 </v>
   <v type="int" >       12        1        2        4        7 </v>
   <v type="int" >       12        1        1        2        4 </v>
   <v type="int" >       12        1        2        4        4 </v>
   <v type="int" >       12        1        1        1        2 </v>
   <v type="int" >       12        7        8        8        9 </v>
   <v type="int" >       18        8        8        9        9 </v>
   <v type="int" >       24        8        9        9       10 </v>
   <v type="int" >       12        8        9        9        9 </v>
   <v type="int" >       24        9        9        9       10 </v>
   <v type="int" >       18        9        9       10       10 </v>
   <v type="int" >        6        4        4        5        5 </v>
   <v type="int" >       12        4        5        5        5 </v>
   <v type="int" >       36        5        5        5        6 </v>
   <v type="int" >       30        5        5        6        6 </v>
   <v type="int" >       12        9       10       10       10 </v>
   <v type="int" >       12        8        8        9       10 </v>
   <v type="int" >       12        8        9       10       10 </v>
   <v type="int" >       24        5        6        6        6 </v>
   <v type="int" >       12        7        8        9       10 </v>
   <v type="int" >       12        4        5        5        6 </v>
   <v type="int" >       12        4        4        5        6 </v>
   <v type="int" >       12        4        5        6        6 </v>
   <v type="int" >       12        2        2        2        3 </v>
   <v type="int" >       12        2        2        3        3 </v>
   <v type="int" >       12        2        3        3        3 </v>
   <v type="int" >        6       10       10       10       10 </v>
   <v type="int" >       18        6        6        6        6 </v>
   <v type="int" >       18        3        3        3        3 </v>
   <v type="int" >        6        1        1        1        1 </v>
  </varray>
  <i name="volumeweight">      0.00077160 </i>
 </kpoints>
 <parameters>
  <separator name="general" >
   <i type="string" name="SYSTEM">unknown system</i>
   <i type="logical" name="LCOMPAT"> F  </i>
  </separator>
  <separator name="electronic" >
   <i type="string" name="PREC">normal</i>
   <i name="ENMAX">    300.00000000</i>
   <i name="ENAUG">    578.34200000</i>
   <i name="EDIFF">      0.00100000</i>
   <i type="int" name="IALGO">    68</i>
   <i type="int" name="IWAVPR">    11</i>
   <i type="int" name="NBANDS">    28</i>
   <i name="NELECT">     42.00000000</i>
   <i type="int" name="TURBO">     0</i>
   <i type="int" name="IRESTART">     0</i>
   <i type="int" name="NREBOOT">     0</i>
   <i type="int" name="NMIN">     0</i>
   <i name="EREF">      0.00000000</i>
   <separator name="electronic smearing" >
    <i type="int" name="ISMEAR">    -5</i>
    <i name="SIGMA">      0.05000000</i>
    <i name="KSPACING">      0.50000000</i>
    <i type="logical" name="KGAMMA"> T  </i>
   </separator>
   <separator name="electronic projectors" >
    <i type="logical" name="LREAL"> T  </i>
    <v name="ROPT">     -0.00050000     -0.00050000     -0.00050000</v>
    <i type="int" name="LMAXPAW">  -100</i>
    <i type="int" name="LMAXMIX">     4</i>
    <i type="logical" name="NLSPLINE"> F  </i>
   </separator>
   <separator name="electronic startup" >
    <i type="int" name="ISTART">     0</i>
    <i type="int" name="ICHARG">     2</i>
    <i type="int" name="INIWAV">     1</i>
   </separator>
   <separator name="electronic spin" >
    <i type="int" name="ISPIN">     2</i>
    <i type="logical" name="LNONCOLLINEAR"> F  </i>
    <v name="MAGMOM">      1.00000000      1.00000000      1.00000000      1.00000000      1.00000000</v>
    <i name="NUPDOWN">     -1.00000000</i>
    <i type="logical" name="LSORBIT"> F  </i>
    <v name="SAXIS">      0.00000000      0.00000000      1.00000000</v>
    <i type="logical" name="LSPIRAL"> F  </i>
    <v name="QSPIRAL">      0.00000000      0.00000000      0.00000000</v>
    <i type="logical" name="LZEROZ"> F  </i>
   </separator>
   <separator name="electronic exchange-correlation" >
    <i type="logical" name="LASPH"> F  </i>
    <i type="logical" name="LMETAGGA"> F  </i>
   </separator>
   <separator name="electronic convergence" >
    <i type="int" name="NELM">   100</i>
    <i type="int" name="NELMDL">    -5</i>
    <i type="int" name="NELMIN">     2</i>
    <i name="ENINI">    300.00000000</i>
    <separator name="electronic convergence detail" >
     <i type="logical" name="LDIAG"> T  </i>
     <i type="logical" name="LSUBROT"> F  </i>
     <i name="WEIMIN">      0.00100000</i>
     <i name="EBREAK">      0.00000893</i>
     <i name="DEPER">      0.30000000</i>
     <i type="int" name="NRMM">     4</i>
     <i name="TIME">      0.40000000</i>
    </separator>
   </separator>
   <separator name="electronic mixer" >
    <i name="AMIX">      0.40000000</i>
    <i name="BMIX">      1.00000000</i>
    <i name="AMIN">      0.10000000</i>
    <i name="AMIX_MAG">      1.60000000</i>
    <i name="BMIX_MAG">      1.00000000</i>
    <separator name="electronic mixer details" >
     <i type="int" name="IMIX">     4</i>
     <i type="logical" name="MIXFIRST"> F  </i>
     <i type="int" name="MAXMIX">   -45</i>
     <i name="WC">    100.00000000</i>
     <i type="int" name="INIMIX">     1</i>
     <i type="int" name="MIXPRE">     1</i>
     <i type="int" name="MREMOVE">     5</i>
    </separator>
   </separator>
   <separator name="electronic dipolcorrection" >
    <i type="logical" name="LDIPOL"> F  </i>
    <i type="logical" name="LMONO"> F  </i>
    <i type="int" name="IDIPOL">     0</i>
    <i name="EPSILON">      1.00000000</i>
    <v name="DIPOL">   -100.00000000   -100.00000000   -100.00000000</v>
    <i name="EFIELD">      0.00000000</i>
   </separator>
  </separator>
  <separator name="grids" >
   <i type="int" name="NGX">    18</i>
   <i type="int" name="NGY">    18</i>
   <i type="int" name="NGZ">    18</i>
   <i type="int" name="NGXF">    36</i>
   <i type="int" name="NGYF">    36</i>
   <i type="int" name="NGZF">    36</i>
   <i type="logical" name="ADDGRID"> F  </i>
  </separator>
  <separator name="ionic" >
   <i type="int" name="NSW">    99</i>
   <i type="int" name="IBRION">     1</i>
   <i type="int" name="ISIF">     0</i>
   <i name="PSTRESS">      0.00000000</i>
   <i name="EDIFFG">     -0.01000000</i>
   <i type="int" name="NFREE">     0</i>
   <i name="POTIM">      0.50000000</i>
   <i name="SMASS">     -3.00000000</i>
   <i name="SCALEE">      1.00000000</i>
  </separator>
  <separator name="ionic md" >
   <i name="TEBEG">      0.00010000</i>
   <i name="TEEND">      0.00010000</i>
   <i type="int" name="NBLOCK">     1</i>
   <i type="int" name="KBLOCK">    99</i>
   <i type="int" name="NPACO">   256</i>
   <i name="APACO">     16.00000000</i>
  </separator>
  <separator name="symmetry" >
   <i type="int" name="ISYM">     2</i>
   <i name="SYMPREC">      0.00001000</i>
  </separator>
  <separator name="dos" >
   <i type="logical" name="LORBIT"> F  </i>
   <v name="RWIGS">     -1.00000000     -1.00000000     -1.00000000</v>
   <i type="int" name="NEDOS">   301</i>
   <i name="EMIN">     10.00000000</i>
   <i name="EMAX">    -10.00000000</i>
   <i name="EFERMI">      0.00000000</i>
  </separator>
  <separator name="writing" >
   <i type="int" name="NWRITE">     2</i>
   <i type="logical" name="LWAVE"> F  </i>
   <i type="logical" name="LCHARG"> T  </i>
   <i type="logical" name="LPARD"> F  </i>
   <i type="logical" name="LVTOT"> F  </i>
   <i type="logical" name="LVHAR"> F  </i>
   <i type="logical" name="LELF"> F  </i>
   <i type="logical" name="LOPTICS"> F  </i>
   <v name="STM">      0.00000000      0.00000000      0.00000000      0.00000000      0.00000000      0.00000000      0.00000000</v>
  </separator>
  <separator name="performance" >
   <i type="int" name="NPAR">     2</i>
   <i type="int" name="NSIM">     4</i>
   <i type="int" name="NBLK">    -1</i>
   <i type="logical" name="LPLANE"> T  </i>
   <i type="logical" name="LSCALAPACK"> T  </i>
   <i type="logical" name="LSCAAWARE"> F  </i>
   <i type="logical" name="LSCALU"> F  </i>
   <i type="logical" name="LASYNC"> F  </i>
   <i type="logical" name="LORBITALREAL"> F  </i>
  </separator>
  <separator name="miscellaneous" >
   <i type="int" name="IDIOT">     3</i>
   <i type="logical" name="LMUSIC"> F  </i>
   <v name="POMASS">     87.62000000     55.84700000     16.00000000</v>
   <v name="DARWINR">      0.00000000      0.00000000      0.00000000</v>
   <v name="DARWINV">      1.00000000      1.00000000      1.00000000</v>
   <i type="logical" name="LCORR"> T  </i>
  </separator>
  <i type="logical" name="GGA_COMPAT"> T  </i>
  <i type="logical" name="LBERRY"> F  </i>
  <i type="int" name="ICORELEVEL">     0</i>
  <i type="logical" name="LDAU"> T  </i>
  <v type="int" name="LDAUTYPE">     2</v>
  <v type="int" name="LDAUL">     0</v>
  <v name="LDAUU">      0.00000000</v>
  <v name="LDAUJ">      0.00000000</v>
  <i type="int" name="LDAUPRINT">     1</i>
  <i type="int" name="I_CONSTRAINED_M">     0</i>
  <separator name="electronic exchange-correlation" >
   <i type="string" name="GGA">--</i>
   <i type="int" name="VOSKOWN">     0</i>
   <i type="logical" name="LHFCALC"> F  </i>
   <i type="string" name="PRECFOCK"></i>
   <i type="logical" name="LSYMGRAD"> F  </i>
   <i type="logical" name="LHFONE"> F  </i>
   <i type="logical" name="LRHFCALC"> F  </i>
   <i type="logical" name="LTHOMAS"> F  </i>
   <i type="logical" name="LMODELHF"> F  </i>
   <i name="ENCUT4O">     -1.00000000</i>
   <i type="int" name="EXXOEP">     0</i>
   <i type="int" name="FOURORBIT">     0</i>
   <i name="AEXX">      0.00000000</i>
   <i name="HFALPHA">      0.00000000</i>
   <i name="MCALPHA">      0.00000000</i>
   <i name="ALDAX">      1.00000000</i>
   <i name="AGGAX">      1.00000000</i>
   <i name="ALDAC">      1.00000000</i>
   <i name="AGGAC">      1.00000000</i>
   <i type="int" name="NKREDX">     1</i>
   <i type="int" name="NKREDY">     1</i>
   <i type="int" name="NKREDZ">     1</i>
   <i type="logical" name="SHIFTRED"> F  </i>
   <i type="logical" name="ODDONLY"> F  </i>
   <i type="logical" name="EVENONLY"> F  </i>
   <i type="int" name="LMAXFOCK">     0</i>
   <i type="int" name="NMAXFOCKAE">     0</i>
   <i type="logical" name="LFOCKAEDFT"> F  </i>
   <i name="HFSCREEN">      0.00000000</i>
   <i name="HFSCREENC">      0.00000000</i>
   <i type="int" name="NBANDSGWLOW">     0</i>
  </separator>
  <separator name="vdW DFT" >
   <i type="logical" name="LUSE_VDW"> F  </i>
   <i name="Zab_VDW">     -0.84910000</i>
   <i name="PARAM1">      0.12340000</i>
   <i name="PARAM2">      1.00000000</i>
   <i name="PARAM3">      0.00000000</i>
  </separator>
  <separator name="model GW" >
   <i type="int" name="MODEL_GW">     0</i>
   <i name="MODEL_EPS0">      7.11828000</i>
   <i name="MODEL_ALPHA">      1.00000000</i>
  </separator>
  <separator name="linear response parameters" >
   <i type="logical" name="LEPSILON"> F  </i>
   <i type="logical" name="LRPA"> F  </i>
   <i type="logical" name="LNABLA"> F  </i>
   <i type="logical" name="LVEL"> F  </i>
   <i type="int" name="KINTER">     0</i>
   <i name="CSHIFT">      0.10000000</i>
   <i name="OMEGAMAX">     -1.00000000</i>
   <i name="DEG_THRESHOLD">      0.00200000</i>
  </separator>
  <separator name="orbital magnetization" >
   <i type="logical" name="NUCIND"> F  </i>
   <v name="MAGPOS">      0.00000000      0.00000000      0.00000000</v>
   <i type="logical" name="LNICSALL"> T  </i>
   <i type="logical" name="ORBITALMAG"> F  </i>
   <i type="logical" name="LMAGBLOCH"> F  </i>
   <i type="logical" name="LCHIMAG"> F  </i>
   <i type="logical" name="LGAUGE"> T  </i>
   <i type="int" name="MAGATOM">     0</i>
   <v name="MAGDIPOL">      0.00000000      0.00000000      0.00000000</v>
   <v name="AVECCONST">      0.00000000      0.00000000      0.00000000</v>
  </separator>
  <separator name="response functions" >
   <i type="logical" name="LADDER"> F  </i>
   <i type="logical" name="LFXC"> F  </i>
   <i type="logical" name="LHARTREE"> T  </i>
   <i type="int" name="IBSE">     0</i>
   <v type="int" name="KPOINT">    -1     0     0     0</v>
   <i type="logical" name="LTCTE"> F  </i>
   <i type="logical" name="LTETE"> F  </i>
   <i type="logical" name="LTRIPLET"> F  </i>
   <i type="logical" name="LFXCEPS"> F  </i>
   <i type="logical" name="LFXHEG"> F  </i>
   <i type="int" name="NATURALO">     0</i>
   <i type="logical" name="L2ORDER"> F  </i>
   <i type="logical" name="LUSEW"> F  </i>
   <i name="ENCUTGW">     -2.00000000</i>
   <i name="ENCUTGWSOFT">     -2.00000000</i>
   <i name="ENCUTLF">     -1.00000000</i>
   <i type="int" name="LMAXMP2">    -1</i>
   <i name="SCISSOR">      0.00000000</i>
   <i type="int" name="NOMEGA">     0</i>
   <i type="int" name="NOMEGAR">     0</i>
   <i type="int" name="NBANDSGW">    -1</i>
   <i type="int" name="NBANDSO">    -1</i>
   <i type="int" name="NBANDSV">    -1</i>
   <i type="int" name="NELM">   100</i>
   <i type="int" name="NELMHF">     1</i>
   <i type="int" name="DIM">     3</i>
   <i type="int" name="ANTIRES">     0</i>
   <i name="OMEGAMAX">    -30.00000000</i>
   <i name="OMEGAMIN">    -30.00000000</i>
   <i name="OMEGATL">   -200.00000000</i>
   <i type="int" name="OMEGAGRID">     0</i>
   <i name="CSHIFT">     -0.10000000</i>
   <i type="logical" name="SELFENERGY"> F  </i>
   <i type="logical" name="LSPECTRAL"> F  </i>
   <i type="logical" name="LSPECTRALGW"> F  </i>
   <i type="logical" name="LSINGLES"> F  </i>
   <i type="logical" name="LFERMIGW"> F  </i>
   <i type="logical" name="ODDONLYGW"> F  </i>
   <i type="logical" name="EVENONLYGW"> F  </i>
   <i type="int" name="NKREDLFX">     1</i>
   <i type="int" name="NKREDLFY">     1</i>
   <i type="int" name="NKREDLFZ">     1</i>
   <i type="int" name="MAXMEM">  1800</i>
   <i type="int" name="TELESCOPE">     0</i>
   <i type="int" name="TAUPAR">     1</i>
   <i type="int" name="OMEGAPAR">    -1</i>
   <i name="LAMBDA">      1.00000000</i>
  </separator>
  <separator name="External order field" >
   <i name="OFIELD_KAPPA">      0.00000000</i>
   <v name="OFIELD_K">      0.00000000      0.00000000      0.00000000</v>
   <i name="OFIELD_Q6_NEAR">      0.00000000</i>
   <i name="OFIELD_Q6_FAR">      0.00000000</i>
   <i name="OFIELD_A">      0.00000000</i>
  </separator>
  <separator name="solvation model" >
   <i type="logical" name="LSOL"> F  </i>
  </separator>
 </parameters>
 <atominfo>
  <atoms>       5 </atoms>
  <types>       3 </types>
  <array name="atoms" >
   <dimension dim="1">ion</dimension>
   <field type="string">element</field>
   <field type="int">atomtype</field>
   <set>
    <rc><c>Sr</c><c>   1</c></rc>
    <rc><c>Fe</c><c>   2</c></rc>
    <rc><c>O </c><c>   3</c></rc>
    <rc><c>O </c><c>   3</c></rc>
    <rc><c>O </c><c>   3</c></rc>
   </set>
  </array>
  <array name="atomtypes" >
   <dimension dim="1">type</dimension>
   <field type="int">atomspertype</field>
   <field type="string">element</field>
   <field>mass</field>
   <field>valence</field>
   <field type="string">pseudopotential</field>
   <set>
    <rc><c>   1</c><c>Sr</c><c>     87.62000000</c><c>     10.00000000</c><c>  PAW Sr                                </c></rc>
    <rc><c>   1</c><c>Fe</c><c>     55.84700000</c><c>     14.00000000</c><c>  PAW Fe                                </c></rc>
    <rc><c>   3</c><c>O </c><c>     16.00000000</c><c>      6.00000000</c><c>  PAW O_s                               </c></rc>
   </set>
  </array>
 </atominfo>
 <structure name="initialpos" >
  <crystal>
   <varray name="basis" >
    <v>       3.90000000       0.00000000       0.00000000 </v>
    <v>       0.00000000       3.90000000       0.00000000 </v>
    <v>       0.00000000       0.00000000       3.90000000 </v>
   </varray>
   <i name="volume">     59.31900000 </i>
   <varray name="rec_basis" >
    <v>       0.25641026       0.00000000       0.00000000 </v>
    <v>       0.00000000       0.25641026       0.00000000 </v>
    <v>       0.00000000       0.00000000       0.25641026 </v>
   </varray>
  </crystal>
  <varray name="positions" >
   <v>       0.50000000       0.50000000       0.50000000 </v>
   <v>       0.00000000       0.00000000       0.00000000 </v>
   <v>       0.50000000       0.00000000       0.00000000 </v>
   <v>       0.00000000       0.50000000       0.00000000 </v>
   <v>       0.00000000       0.00000000       0.50000000 </v>
  </varray>
 </structure>
 <calculation>
  <scstep>
   <time name="dav">    0.42    0.42</time>
   <time name="total">    0.51    0.51</time>
   <energy>
    <i name="alphaZ">    289.75739605 </i>
    <i name="ewald">  -3239.38458258 </i>
    <i name="hartreedc">  -1291.39321036 </i>
    <i name="XCdc">    190.31079182 </i>
    <i name="pawpsdc">   3241.81915236 </i>
    <i name="pawaedc">  -3317.81696278 </i>
    <i name="eentropy">      0.00000000 </i>
    <i name="bandstr">   -145.95679563 </i>
    <i name="atom">   4601.94837920 </i>
    <i name="e_fr_energy">    329.28416808 </i>
    <i name="e_wo_entrp">    329.28416808 </i>
    <i name="e_0_energy">    329.28416808 </i>
   </energy>
  </scstep>
  <scstep>
   <time name="dav">    0.40    0.40</time>
   <time name="total">    0.41    0.41</time>
   <energy>
    <i name="e_fr_energy">    -17.86550758 </i>
    <i name="e_wo_entrp">    -17.86550758 </i>
    <i name="e_0_energy">    -17.86550758 </i>
   </energy>
  </scstep>
  <scstep>
   <time name="dav">    0.52    0.52</time>
   <time name="total">    0.54    0.54</time>
   <energy>
    <i name="e_fr_energy">    -37.10419396 </i>
    <i name="e_wo_entrp">    -37.10419396 </i>
    <i name="e_0_energy">    -37.10419396 </i>
   </energy>
  </scstep>
  <scstep>
   <time name="dav">    0.57    0.57</time>
   <time name="total">    0.58    0.59</time>
   <energy>
    <i name="e_fr_energy">    -37.67396424 </i>
    <i name="e_wo_entrp">    -37.67396424 </i>
    <i name="e_0_energy">    -37.67396424 </i>
   </energy>
  </scstep>
  <scstep>
   <time name="dav">    0.49    0.50</time>
   <time name="total">    0.53    0.53</time>
   <energy>
    <i name="e_fr_energy">    -37.68253087 </i>
    <i name="e_wo_entrp">    -37.68253087 </i>
    <i name="e_0_energy">    -37.68253087 </i>
   </energy>
  </scstep>
  <scstep>
   <time name="diag">    0.08    0.08</time>
   <time name="diis">    0.20    0.20</time>
   <time name="orth">    0.01    0.01</time>
   <time name="total">    0.40    0.41</time>
   <energy>
    <i name="e_fr_energy">    -43.21762283 </i>
    <i name="e_wo_entrp">    -43.21762283 </i>
    <i name="e_0_energy">    -43.21762283 </i>
   </energy>
  </scstep>
  <scstep>
   <time name="diag">    0.08    0.08</time>
   <time name="diis">    0.19    0.19</time>
   <time name="orth">    0.01    0.01</time>
   <time name="total">    0.39    0.39</time>
   <energy>
    <i name="e_fr_energy">    -32.12439512 </i>
    <i name="e_wo_entrp">    -32.12439512 </i>
    <i name="e_0_energy">    -32.12439512 </i>
   </energy>
  </scstep>
  <scstep>
   <time name="diag">    0.08    0.08</time>
   <time name="diis">    0.20    0.20</time>
   <time name="orth">    0.01    0.01</time>
   <time name="total">    0.40    0.40</time>
   <energy>
    <i name="e_fr_energy">    -32.05004902 </i>
    <i name="e_wo_entrp">    -32.05004902 </i>
    <i name="e_0_energy">    -32.05004902 </i>
   </energy>
  </scstep>
  <scstep>
   <time name="diag">    0.08    0.08</time>
   <time name="diis">    0.19    0.19</time>
   <time name="orth">    0.01    0.01</time>
   <time name="total">    0.39    0.39</time>
   <energy>
    <i name="e_fr_energy">    -31.55923654 </i>
    <i name="e_wo_entrp">    -31.55923654 </i>
    <i name="e_0_energy">    -31.55923654 </i>
   </energy>
  </scstep>
  <scstep>
   <time name="diag">    0.08    0.08</time>
   <time name="diis">    0.20    0.20</time>
   <time name="orth">    0.01    0.01</time>
   <time name="total">    0.39    0.40</time>
   <energy>
    <i name="e_fr_energy">    -31.48353259 </i>
    <i name="e_wo_entrp">    -31.48353259 </i>
    <i name="e_0_energy">    -31.48353259 </i>
   </energy>
  </scstep>
  <scstep>
   <time name="diag">    0.08    0.08</time>
   <time name="diis">    0.18    0.18</time>
   <time name="orth">    0.01    0.01</time>
   <time name="total">    0.38    0.38</time>
   <energy>
    <i name="e_fr_energy">    -31.46581316 </i>
    <i name="e_wo_entrp">    -31.46581316 </i>
    <i name="e_0_energy">    -31.46581316 </i>
   </energy>
  </scstep>
  <scstep>
   <time name="diag">    0.08    0.08</time>
   <time name="diis">    0.17    0.17</time>
   <time name="orth">    0.01    0.01</time>
   <time name="total">    0.37    0.37</time>
   <energy>
    <i name="e_fr_energy">    -31.47124835 </i>
    <i name="e_wo_entrp">    -31.47124835 </i>
    <i name="e_0_energy">    -31.47124835 </i>
   </energy>
  </scstep>
  <scstep>
   <time name="diag">    0.08    0.08</time>
   <time name="diis">    0.15    0.16</time>
   <time name="orth">    0.01    0.01</time>
   <time name="total">    0.35    0.36</time>
   <energy>
    <i name="e_fr_energy">    -31.46822606 </i>
    <i name="e_wo_entrp">    -31.46822606 </i>
    <i name="e_0_energy">    -31.46822606 </i>
   </energy>
  </scstep>
  <scstep>
   <time name="diag">    0.08    0.08</time>
   <time name="diis">    0.12    0.12</time>
   <time name="orth">    0.01    0.01</time>
   <time name="total">    0.30    0.30</time>
   <energy>
    <i name="alphaZ">    289.75739605 </i>
    <i name="ewald">  -3239.38458258 </i>
    <i name="hartreedc">  -1239.87376752 </i>
    <i name="XCdc">    191.47100107 </i>
    <i name="pawpsdc">   3456.74827763 </i>
    <i name="pawaedc">  -3544.10702805 </i>
    <i name="eentropy">      0.00000000 </i>
    <i name="bandstr">   -548.02757737 </i>
    <i name="atom">   4601.94837920 </i>
    <i name="e_fr_energy">    -31.46790157 </i>
    <i name="e_wo_entrp">    -31.46790157 </i>
    <i name="e_0_energy">    -31.46790157 </i>
   </energy>
  </scstep>
  <structure>
   <crystal>
    <varray name="basis" >
     <v>       3.90000000       0.00000000       0.00000000 </v>
     <v>       0.00000000       3.90000000       0.00000000 </v>
     <v>       0.00000000       0.00000000       3.90000000 </v>
    </varray>
    <i name="volume">     59.31900000 </i>
    <varray name="rec_basis" >
     <v>       0.25641026       0.00000000       0.00000000 </v>
     <v>       0.00000000       0.25641026       0.00000000 </v>
     <v>       0.00000000       0.00000000       0.25641026 </v>
    </varray>
   </crystal>
   <varray name="positions" >
    <v>       0.50000000       0.50000000       0.50000000 </v>
    <v>       0.00000000       0.00000000       0.00000000 </v>
    <v>       0.50000000       0.00000000       0.00000000 </v>
    <v>       0.00000000       0.50000000       0.00000000 </v>
    <v>       0.00000000       0.00000000       0.50000000 </v>
   </varray>
  </structure>
  <varray name="forces" >
   <v>       0.00000000       0.00000000       0.00000000 </v>
   <v>       0.00000000       0.00000000       0.00000000 </v>
   <v>       0.00000000       0.00000000       0.00000000 </v>
   <v>       0.00000000       0.00000000       0.00000000 </v>
   <v>       0.00000000       0.00000000       0.00000000 </v>
  </varray>
  <energy>
   <i name="e_fr_energy">    -31.46790157 </i>
   <i name="e_wo_entrp">    -31.46790157 </i>
   <i name="e_0_energy">      0.00000000 </i>
  </energy>
  <time name="totalsc">    6.35    6.39</time>
  <eigenvalues>
   <array>
    <dimension dim="1">band</dimension>
    <dimension dim="2">kpoint</dimension>
    <dimension dim="3">spin</dimension>
    <field>eigene</field>
    <field>occ</field>
    <set>
     <set comment="spin 1">
      <set comment="kpoint 1">
       <r>  -54.5380    1.0000 </r>
       <r>  -54.5380    1.0000 </r>
       <r>  -54.5378    1.0000 </r>
       <r>  -29.9038    1.0000 </r>
       <r>  -15.2958    1.0000 </r>
       <r>  -14.0943    1.0000 </r>
       <r>  -14.0943    1.0000 </r>
       <r>  -11.9414    1.0000 </r>
       <r>  -11.9414    1.0000 </r>
       <r>  -11.8810    1.0000 </r>
       <r>   -4.2483    1.0000 </r>
       <r>   -4.2483    1.0000 </r>
       <r>   -4.2412    1.0000 </r>
       <r>   -3.0504    1.0000 </r>
       <r>   -3.0504    1.0000 </r>
       <r>   -1.5369    1.0000 </r>
       <r>   -0.8092    1.0000 </r>
       <r>   -0.8092    1.0000 </r>
       <r>    1.2385    1.0000 </r>
       <r>    1.2385    1.0000 </r>
       <r>    1.4518    1.0000 </r>
       <r>    1.6303    1.0000 </r>
       <r>    2.0719    1.0003 </r>
       <r>    2.0719    1.0396 </r>
       <r>    8.5437    0.0000 </r>
       <r>    8.5437    0.0000 </r>
       <r>    9.1868    0.0000 </r>
       <r>   10.8281    0.0000 </r>
      </set>
      <set comment="kpoint 2">
       <r>  -54.5386    1.0000 </r>
       <r>  -54.5379    1.0000 </r>
       <r>  -54.5379    1.0000 </r>
       <r>  -29.8935    1.0000 </r>
       <r>  -15.2698    1.0000 </r>
       <r>  -14.1595    1.0000 </r>
       <r>  -14.0672    1.0000 </r>
       <r>  -11.9369    1.0000 </r>
       <r>  -11.8936    1.0000 </r>
       <r>  -11.6953    1.0000 </r>
       <r>   -4.3775    1.0000 </r>
       <r>   -4.3594    1.0000 </r>
       <r>   -4.2477    1.0000 </r>
       <r>   -4.2429    1.0000 </r>
       <r>   -3.0467    1.0000 </r>
       <r>   -1.5476    1.0000 </r>
       <r>   -0.7447    1.0000 </r>
       <r>    0.0418    1.0000 </r>
       <r>    0.8929    1.0000 </r>
       <r>    1.2259    1.0000 </r>
       <r>    1.2390    1.0000 </r>
       <r>    1.4733    1.0000 </r>
       <r>    1.9592    1.0033 </r>
       <r>    2.2233    0.9310 </r>
       <r>    9.2412    0.0000 </r>
       <r>    9.3142    0.0000 </r>
       <r>   10.1787    0.0000 </r>
       <r>   10.9612    0.0000 </r>
      </set>
      <set comment="kpoint 3">
       <r>  -54.5389    1.0000 </r>
       <r>  -54.5377    1.0000 </r>
       <r>  -54.5376    1.0000 </r>
       <r>  -29.8831    1.0000 </r>
       <r>  -15.2930    1.0000 </r>
       <r>  -14.1299    1.0000 </r>
       <r>  -14.0385    1.0000 </r>
       <r>  -11.9328    1.0000 </r>
       <r>  -11.8558    1.0000 </r>
       <r>  -11.5318    1.0000 </r>
       <r>   -5.0983    1.0000 </r>
       <r>   -4.4894    1.0000 </r>
       <r>   -4.4612    1.0000 </r>
       <r>   -4.2477    1.0000 </r>
       <r>   -3.0458    1.0000 </r>
       <r>   -1.4664    1.0000 </r>
       <r>   -0.7153    1.0000 </r>
       <r>    0.0747    1.0000 </r>
       <r>    0.6428    1.0000 </r>
       <r>    1.1284    1.0000 </r>
       <r>    1.4745    1.0000 </r>
       <r>    1.5554    1.0000 </r>
       <r>    1.7605    1.0067 </r>
       <r>    2.2253    0.7908 </r>
       <r>   10.0173    0.0000 </r>
       <r>   10.2184    0.0000 </r>
       <r>   11.0819    0.0000 </r>
       <r>   11.5964    0.0000 </r>
      </set>
      <set comment="kpoint 4">
       <r>  -54.5387    1.0000 </r>
       <r>  -54.5385    1.0000 </r>
       <r>  -54.5378    1.0000 </r>
       <r>  -29.8838    1.0000 </r>
       <r>  -15.1466    1.0000 </r>
       <r>  -14.2420    1.0000 </r>
       <r>  -14.0645    1.0000 </r>
       <r>  -11.9232    1.0000 </r>
       <r>  -11.8209    1.0000 </r>
       <r>  -11.6650    1.0000 </r>
       <r>   -4.5364    1.0000 </r>
       <r>   -4.4753    1.0000 </r>
       <r>   -4.3843    1.0000 </r>
       <r>   -4.3694    1.0000 </r>
       <r>   -3.9052    1.0000 </r>
       <r>   -1.6383    1.0000 </r>
       <r>   -0.2374    1.0000 </r>
       <r>    0.5441    1.0000 </r>
       <r>    0.6308    1.0000 </r>
       <r>    0.8551    1.0000 </r>
       <r>    1.1646    1.0000 </r>
       <r>    1.6859    1.0000 </r>
       <r>    1.8960    1.0264 </r>
       <r>    2.7750    0.1399 </r>
       <r>    9.6789    0.0000 </r>
       <r>   10.0505    0.0000 </r>
       <r>   10.5611    0.0000 </r>
       <r>   11.4904    0.0000 </r>
      </set>
      <set comment="kpoint 5">
       <r>  -54.5391    1.0000 </r>
       <r>  -54.5385    1.0000 </r>
       <r>  -54.5378    1.0000 </r>
       <r>  -29.8741    1.0000 </r>
       <r>  -15.0577    1.0000 </r>
       <r>  -14.2592    1.0000 </r>
       <r>  -14.0626    1.0000 </r>
       <r>  -11.9294    1.0000 </r>
       <r>  -11.7606    1.0000 </r>
       <r>  -11.6178    1.0000 </r>
       <r>   -5.1411    1.0000 </r>
       <r>   -4.6848    1.0000 </r>
       <r>   -4.4921    1.0000 </r>
       <r>   -4.3916    1.0000 </r>
       <r>   -4.0844    1.0000 </r>
       <r>   -1.5310    1.0000 </r>
       <r>   -0.0298    1.0000 </r>
       <r>    0.1593    1.0000 </r>
       <r>    0.6943    1.0000 </r>
       <r>    0.8771    1.0000 </r>
       <r>    1.3418    1.0000 </r>
       <r>    1.6794    1.0000 </r>
       <r>    1.9536    1.0485 </r>
       <r>    3.1343   -0.0320 </r>
       <r>   10.3548    0.0000 </r>
       <r>   10.9117    0.0000 </r>
       <r>   11.1831    0.0000 </r>
       <r>   11.8341    0.0000 </r>
      </set>
      <set comment="kpoint 6">
       <r>  -54.5390    1.0000 </r>
       <r>  -54.5390    1.0000 </r>
       <r>  -54.5376    1.0000 </r>
       <r>  -29.8650    1.0000 </r>
       <r>  -14.7241    1.0000 </r>
       <r>  -14.3712    1.0000 </r>
       <r>  -14.1950    1.0000 </r>
       <r>  -11.8918    1.0000 </r>
       <r>  -11.7112    1.0000 </r>
       <r>  -11.6755    1.0000 </r>
       <r>   -5.3205    1.0000 </r>
       <r>   -4.8743    1.0000 </r>
       <r>   -4.7634    1.0000 </r>
       <r>   -4.5190    1.0000 </r>
       <r>   -4.5146    1.0000 </r>
       <r>   -1.4226    1.0000 </r>
       <r>   -0.0062    1.0000 </r>
       <r>    0.5198    1.0000 </r>
       <r>    0.8173    1.0000 </r>
       <r>    0.8419    1.0000 </r>
       <r>    1.2666    1.0000 </r>
       <r>    1.4276    1.0000 </r>
       <r>    2.3086    1.0014 </r>
       <r>    3.8630    0.0000 </r>
       <r>   10.6407    0.0000 </r>
       <r>   10.9117    0.0000 </r>
       <r>   11.7611    0.0000 </r>
       <r>   11.8343    0.0000 </r>
      </set>
      <set comment="kpoint 7">
       <r>  -54.5385    1.0000 </r>
       <r>  -54.5385    1.0000 </r>
       <r>  -54.5384    1.0000 </r>
       <r>  -29.8746    1.0000 </r>
       <r>  -14.9893    1.0000 </r>
       <r>  -14.1533    1.0000 </r>
       <r>  -14.1533    1.0000 </r>
       <r>  -11.9316    1.0000 </r>
       <r>  -11.9316    1.0000 </r>
       <r>  -11.6243    1.0000 </r>
       <r>   -4.5821    1.0000 </r>
       <r>   -4.5046    1.0000 </r>
       <r>   -4.5046    1.0000 </r>
       <r>   -4.4624    1.0000 </r>
       <r>   -4.4624    1.0000 </r>
       <r>   -2.4624    1.0000 </r>
       <r>    0.3446    1.0000 </r>
       <r>    0.6878    1.0000 </r>
       <r>    0.6878    1.0000 </r>
       <r>    1.0333    1.0000 </r>
       <r>    1.0333    1.0000 </r>
       <r>    1.9107    1.0000 </r>
       <r>    2.7121    0.5683 </r>
       <r>    2.7121    0.0600 </r>
       <r>   10.1732    0.0000 </r>
       <r>   10.1770    0.0000 </r>
       <r>   10.4538    0.0000 </r>
       <r>   11.6309    0.0000 </r>
      </set>
      <set comment="kpoint 8">
       <r>  -54.5391    1.0000 </r>
       <r>  -54.5384    1.0000 </r>
       <r>  -54.5384    1.0000 </r>
       <r>  -29.8654    1.0000 </r>
       <r>  -14.8335    1.0000 </r>
       <r>  -14.2310    1.0000 </r>
       <r>  -14.0535    1.0000 </r>
       <r>  -12.0531    1.0000 </r>
       <r>  -11.8289    1.0000 </r>
       <r>  -11.6923    1.0000 </r>
       <r>   -5.1663    1.0000 </r>
       <r>   -4.7061    1.0000 </r>
       <r>   -4.5912    1.0000 </r>
       <r>   -4.5096    1.0000 </r>
       <r>   -4.4754    1.0000 </r>
       <r>   -2.6460    1.0000 </r>
       <r>    0.2196    1.0000 </r>
       <r>    0.6366    1.0000 </r>
       <r>    0.7300    1.0000 </r>
       <r>    1.0939    1.0000 </r>
       <r>    1.6806    1.0000 </r>
       <r>    2.0737    1.0000 </r>
       <r>    2.6008    0.5110 </r>
       <r>    3.2576   -0.0175 </r>
       <r>   10.5719    0.0000 </r>
       <r>   10.6972    0.0000 </r>
       <r>   10.7505    0.0000 </r>
       <r>   11.3435    0.0000 </r>
      </set>
      <set comment="kpoint 9">
       <r>  -54.5392    1.0000 </r>
       <r>  -54.5390    1.0000 </r>
       <r>  -54.5383    1.0000 </r>
       <r>  -29.8567    1.0000 </r>
       <r>  -14.5182    1.0000 </r>
       <r>  -14.2318    1.0000 </r>
       <r>  -14.1046    1.0000 </r>
       <r>  -12.0729    1.0000 </r>
       <r>  -11.9269    1.0000 </r>
       <r>  -11.8236    1.0000 </r>
       <r>   -5.3188    1.0000 </r>
       <r>   -4.9453    1.0000 </r>
       <r>   -4.7915    1.0000 </r>
       <r>   -4.6141    1.0000 </r>
       <r>   -4.6094    1.0000 </r>
       <r>   -2.9864    1.0000 </r>
       <r>    0.2853    1.0000 </r>
       <r>    0.6934    1.0000 </r>
       <r>    0.7158    1.0000 </r>
       <r>    1.7030    1.0000 </r>
       <r>    1.8305    1.0000 </r>
       <r>    2.3478    1.0000 </r>
       <r>    2.7228    0.1382 </r>
       <r>    3.8551    0.0000 </r>
       <r>   10.2847    0.0000 </r>
       <r>   10.6229    0.0000 </r>
       <r>   10.6817    0.0000 </r>
       <r>   11.5167    0.0000 </r>
      </set>
      <set comment="kpoint 10">
       <r>  -54.5392    1.0000 </r>
       <r>  -54.5391    1.0000 </r>
       <r>  -54.5391    1.0000 </r>
       <r>  -29.8484    1.0000 </r>
       <r>  -14.2412    1.0000 </r>
       <r>  -14.0635    1.0000 </r>
       <r>  -14.0635    1.0000 </r>
       <r>  -12.1699    1.0000 </r>
       <r>  -12.1699    1.0000 </r>
       <r>  -12.0518    1.0000 </r>
       <r>   -5.3169    1.0000 </r>
       <r>   -5.3169    1.0000 </r>
       <r>   -4.7316    1.0000 </r>
       <r>   -4.6926    1.0000 </r>
       <r>   -4.6926    1.0000 </r>
       <r>   -3.6649    1.0000 </r>
       <r>    0.5750    1.0000 </r>
       <r>    0.6977    1.0000 </r>
       <r>    0.6977    1.0000 </r>
       <r>    2.2850    1.0000 </r>
       <r>    2.2850    1.0000 </r>
       <r>    2.4151    1.0000 </r>
       <r>    3.8368    0.0000 </r>
       <r>    3.8368    0.0000 </r>
       <r>    9.8503    0.0000 </r>
       <r>    9.9389    0.0000 </r>
       <r>    9.9391    0.0000 </r>
       <r>   12.2920    0.0000 </r>
      </set>
     </set>
     <set comment="spin 2">
      <set comment="kpoint 1">
       <r>  -50.2421    1.0000 </r>
       <r>  -50.2421    1.0000 </r>
       <r>  -50.2420    1.0000 </r>
       <r>  -29.8996    1.0000 </r>
       <r>  -15.1652    1.0000 </r>
       <r>  -13.7305    1.0000 </r>
       <r>  -13.7305    1.0000 </r>
       <r>  -11.9241    1.0000 </r>
       <r>  -11.9241    1.0000 </r>
       <r>  -11.8702    1.0000 </r>
       <r>   -1.4356    1.0000 </r>
       <r>   -1.2297    1.0000 </r>
       <r>   -1.2297    1.0000 </r>
       <r>    1.2086    1.0000 </r>
       <r>    1.2086    1.0000 </r>
       <r>    1.5800    1.0000 </r>
       <r>    1.6370    1.0000 </r>
       <r>    1.9169    1.0000 </r>
       <r>    1.9169    1.0000 </r>
       <r>    3.9502    0.0000 </r>
       <r>    3.9952    0.0000 </r>
       <r>    3.9952    0.0000 </r>
       <r>    4.5226    0.0000 </r>
       <r>    4.5226    0.0000 </r>
       <r>    8.5983    0.0000 </r>
       <r>    8.5983    0.0000 </r>
       <r>    9.3540    0.0000 </r>
       <r>   11.0916    0.0000 </r>
      </set>
      <set comment="kpoint 2">
       <r>  -50.2431    1.0000 </r>
       <r>  -50.2420    1.0000 </r>
       <r>  -50.2420    1.0000 </r>
       <r>  -29.8894    1.0000 </r>
       <r>  -15.1348    1.0000 </r>
       <r>  -13.9062    1.0000 </r>
       <r>  -13.6988    1.0000 </r>
       <r>  -11.9218    1.0000 </r>
       <r>  -11.8756    1.0000 </r>
       <r>  -11.6613    1.0000 </r>
       <r>   -1.8390    1.0000 </r>
       <r>   -1.2290    1.0000 </r>
       <r>   -1.1935    1.0000 </r>
       <r>    0.5084    1.0000 </r>
       <r>    0.5921    1.0000 </r>
       <r>    1.1359    1.0000 </r>
       <r>    1.5094    1.0000 </r>
       <r>    1.5943    1.0000 </r>
       <r>    1.7300    1.0000 </r>
       <r>    4.0026    0.0000 </r>
       <r>    4.4449    0.0000 </r>
       <r>    4.5315    0.0000 </r>
       <r>    4.6121    0.0000 </r>
       <r>    5.3970    0.0000 </r>
       <r>    9.3179    0.0000 </r>
       <r>    9.3727    0.0000 </r>
       <r>   10.3281    0.0000 </r>
       <r>   11.1073    0.0000 </r>
      </set>
      <set comment="kpoint 3">
       <r>  -50.2439    1.0000 </r>
       <r>  -50.2418    1.0000 </r>
       <r>  -50.2417    1.0000 </r>
       <r>  -29.8791    1.0000 </r>
       <r>  -15.1356    1.0000 </r>
       <r>  -13.9974    1.0000 </r>
       <r>  -13.6652    1.0000 </r>
       <r>  -11.9201    1.0000 </r>
       <r>  -11.8426    1.0000 </r>
       <r>  -11.4897    1.0000 </r>
       <r>   -2.1984    1.0000 </r>
       <r>   -1.2022    1.0000 </r>
       <r>   -1.1501    1.0000 </r>
       <r>   -0.1813    1.0000 </r>
       <r>    0.1826    1.0000 </r>
       <r>    0.9617    1.0000 </r>
       <r>    1.2531    1.0000 </r>
       <r>    1.3277    1.0000 </r>
       <r>    1.5837    1.0000 </r>
       <r>    4.0321    0.0000 </r>
       <r>    4.4976    0.0000 </r>
       <r>    5.0040    0.0000 </r>
       <r>    5.0229    0.0000 </r>
       <r>    5.9703    0.0000 </r>
       <r>   10.1001    0.0000 </r>
       <r>   10.2804    0.0000 </r>
       <r>   11.1079    0.0000 </r>
       <r>   11.8400    0.0000 </r>
      </set>
      <set comment="kpoint 4">
       <r>  -50.2431    1.0000 </r>
       <r>  -50.2430    1.0000 </r>
       <r>  -50.2419    1.0000 </r>
       <r>  -29.8797    1.0000 </r>
       <r>  -15.0173    1.0000 </r>
       <r>  -14.0177    1.0000 </r>
       <r>  -13.7518    1.0000 </r>
       <r>  -11.9081    1.0000 </r>
       <r>  -11.7795    1.0000 </r>
       <r>  -11.6453    1.0000 </r>
       <r>   -2.1448    1.0000 </r>
       <r>   -1.3402    1.0000 </r>
       <r>   -1.1206    1.0000 </r>
       <r>   -0.3539    1.0000 </r>
       <r>    0.4588    1.0000 </r>
       <r>    0.6286    1.0000 </r>
       <r>    1.4144    1.0000 </r>
       <r>    1.4795    1.0000 </r>
       <r>    1.9582    1.0000 </r>
       <r>    4.4831    0.0000 </r>
       <r>    4.5947    0.0000 </r>
       <r>    4.7148    0.0000 </r>
       <r>    4.9314    0.0000 </r>
       <r>    6.0165    0.0000 </r>
       <r>    9.7831    0.0000 </r>
       <r>   10.1156    0.0000 </r>
       <r>   10.6611    0.0000 </r>
       <r>   11.6454    0.0000 </r>
      </set>
      <set comment="kpoint 5">
       <r>  -50.2439    1.0000 </r>
       <r>  -50.2429    1.0000 </r>
       <r>  -50.2419    1.0000 </r>
       <r>  -29.8701    1.0000 </r>
       <r>  -14.9082    1.0000 </r>
       <r>  -14.1297    1.0000 </r>
       <r>  -13.7604    1.0000 </r>
       <r>  -11.9165    1.0000 </r>
       <r>  -11.7394    1.0000 </r>
       <r>  -11.5849    1.0000 </r>
       <r>   -2.4604    1.0000 </r>
       <r>   -1.4091    1.0000 </r>
       <r>   -1.0244    1.0000 </r>
       <r>   -0.9566    1.0000 </r>
       <r>    0.0681    1.0000 </r>
       <r>    0.6044    1.0000 </r>
       <r>    1.1525    1.0000 </r>
       <r>    1.3744    1.0000 </r>
       <r>    2.0599    1.0000 </r>
       <r>    4.5492    0.0000 </r>
       <r>    4.9464    0.0000 </r>
       <r>    5.0157    0.0000 </r>
       <r>    5.0718    0.0000 </r>
       <r>    6.6418    0.0000 </r>
       <r>   10.4502    0.0000 </r>
       <r>   10.9361    0.0000 </r>
       <r>   11.2775    0.0000 </r>
       <r>   11.8819    0.0000 </r>
      </set>
      <set comment="kpoint 6">
       <r>  -50.2439    1.0000 </r>
       <r>  -50.2438    1.0000 </r>
       <r>  -50.2417    1.0000 </r>
       <r>  -29.8610    1.0000 </r>
       <r>  -14.5674    1.0000 </r>
       <r>  -14.2554    1.0000 </r>
       <r>  -13.9723    1.0000 </r>
       <r>  -11.8830    1.0000 </r>
       <r>  -11.6835    1.0000 </r>
       <r>  -11.6541    1.0000 </r>
       <r>   -2.7993    1.0000 </r>
       <r>   -1.5718    1.0000 </r>
       <r>   -1.5064    1.0000 </r>
       <r>   -0.7356    1.0000 </r>
       <r>   -0.0291    1.0000 </r>
       <r>    0.1129    1.0000 </r>
       <r>    1.2233    1.0000 </r>
       <r>    1.3000    1.0000 </r>
       <r>    2.5048    1.0000 </r>
       <r>    4.9779    0.0000 </r>
       <r>    5.0192    0.0000 </r>
       <r>    5.1063    0.0000 </r>
       <r>    5.2192    0.0000 </r>
       <r>    7.3831    0.0000 </r>
       <r>   10.6813    0.0000 </r>
       <r>   10.9891    0.0000 </r>
       <r>   11.8760    0.0000 </r>
       <r>   11.9613    0.0000 </r>
      </set>
      <set comment="kpoint 7">
       <r>  -50.2430    1.0000 </r>
       <r>  -50.2430    1.0000 </r>
       <r>  -50.2429    1.0000 </r>
       <r>  -29.8706    1.0000 </r>
       <r>  -14.8722    1.0000 </r>
       <r>  -13.9181    1.0000 </r>
       <r>  -13.9181    1.0000 </r>
       <r>  -11.8993    1.0000 </r>
       <r>  -11.8993    1.0000 </r>
       <r>  -11.6079    1.0000 </r>
       <r>   -2.4012    1.0000 </r>
       <r>   -1.3052    1.0000 </r>
       <r>   -1.3052    1.0000 </r>
       <r>   -0.4415    1.0000 </r>
       <r>   -0.1230    1.0000 </r>
       <r>   -0.1230    1.0000 </r>
       <r>    1.7401    1.0000 </r>
       <r>    1.7401    1.0000 </r>
       <r>    2.1010    1.0058 </r>
       <r>    4.7257    0.0000 </r>
       <r>    4.8055    0.0000 </r>
       <r>    4.8056    0.0000 </r>
       <r>    5.9994    0.0000 </r>
       <r>    5.9994    0.0000 </r>
       <r>   10.2792    0.0000 </r>
       <r>   10.2822    0.0000 </r>
       <r>   10.5226    0.0000 </r>
       <r>   11.7300    0.0000 </r>
      </set>
      <set comment="kpoint 8">
       <r>  -50.2439    1.0000 </r>
       <r>  -50.2429    1.0000 </r>
       <r>  -50.2428    1.0000 </r>
       <r>  -29.8615    1.0000 </r>
       <r>  -14.6997    1.0000 </r>
       <r>  -14.1017    1.0000 </r>
       <r>  -13.8041    1.0000 </r>
       <r>  -12.0337    1.0000 </r>
       <r>  -11.7993    1.0000 </r>
       <r>  -11.6725    1.0000 </r>
       <r>   -2.7061    1.0000 </r>
       <r>   -1.4131    1.0000 </r>
       <r>   -1.2608    1.0000 </r>
       <r>   -0.9525    1.0000 </r>
       <r>   -0.4768    1.0000 </r>
       <r>   -0.0983    1.0000 </r>
       <r>    1.7380    1.0000 </r>
       <r>    1.8589    1.0000 </r>
       <r>    2.1907    1.0481 </r>
       <r>    4.8256    0.0000 </r>
       <r>    5.0873    0.0000 </r>
       <r>    5.1229    0.0000 </r>
       <r>    5.9640    0.0000 </r>
       <r>    6.7969    0.0000 </r>
       <r>   10.6586    0.0000 </r>
       <r>   10.7815    0.0000 </r>
       <r>   10.8606    0.0000 </r>
       <r>   11.4047    0.0000 </r>
      </set>
      <set comment="kpoint 9">
       <r>  -50.2440    1.0000 </r>
       <r>  -50.2438    1.0000 </r>
       <r>  -50.2427    1.0000 </r>
       <r>  -29.8528    1.0000 </r>
       <r>  -14.3883    1.0000 </r>
       <r>  -14.1102    1.0000 </r>
       <r>  -13.9184    1.0000 </r>
       <r>  -12.0549    1.0000 </r>
       <r>  -11.8997    1.0000 </r>
       <r>  -11.8025    1.0000 </r>
       <r>   -3.0548    1.0000 </r>
       <r>   -1.5619    1.0000 </r>
       <r>   -1.2499    1.0000 </r>
       <r>   -1.1748    1.0000 </r>
       <r>   -0.4863    1.0000 </r>
       <r>   -0.4792    1.0000 </r>
       <r>    1.9547    1.0000 </r>
       <r>    2.0050    1.0000 </r>
       <r>    2.5406    0.8054 </r>
       <r>    5.1428    0.0000 </r>
       <r>    5.1621    0.0000 </r>
       <r>    5.2829    0.0000 </r>
       <r>    6.3010    0.0000 </r>
       <r>    7.3751    0.0000 </r>
       <r>   10.3588    0.0000 </r>
       <r>   10.7230    0.0000 </r>
       <r>   10.7962    0.0000 </r>
       <r>   11.5771    0.0000 </r>
      </set>
      <set comment="kpoint 10">
       <r>  -50.2439    1.0000 </r>
       <r>  -50.2439    1.0000 </r>
       <r>  -50.2439    1.0000 </r>
       <r>  -29.8446    1.0000 </r>
       <r>  -14.1293    1.0000 </r>
       <r>  -13.9326    1.0000 </r>
       <r>  -13.9326    1.0000 </r>
       <r>  -12.1469    1.0000 </r>
       <r>  -12.1469    1.0000 </r>
       <r>  -12.0289    1.0000 </r>
       <r>   -3.4260    1.0000 </r>
       <r>   -1.5506    1.0000 </r>
       <r>   -1.5506    1.0000 </r>
       <r>   -0.8936    1.0000 </r>
       <r>   -0.7479    1.0000 </r>
       <r>   -0.7479    1.0000 </r>
       <r>    2.4896    1.0000 </r>
       <r>    2.4896    1.0000 </r>
       <r>    2.6117    0.0720 </r>
       <r>    5.3408    0.0000 </r>
       <r>    5.3572    0.0000 </r>
       <r>    5.3572    0.0000 </r>
       <r>    7.3597    0.0000 </r>
       <r>    7.3597    0.0000 </r>
       <r>    9.9415    0.0000 </r>
       <r>   10.0226    0.0000 </r>
       <r>   10.0227    0.0000 </r>
       <r>   12.3235    0.0000 </r>
      </set>
     </set>
    </set>
   </array>
  </eigenvalues>
  <separator name="orbital magnetization" >
   <v name="MAGDIPOLOUT">      0.00000000      0.00000000      0.00000000</v>
  </separator>
 </calculation>
 <structure name="finalpos" >
  <crystal>
   <varray name="basis" >
    <v>       3.90000000       0.00000000       0.00000000 </v>
    <v>       0.00000000       3.90000000       0.00000000 </v>
    <v>       0.00000000       0.00000000       3.90000000 </v>
   </varray>
   <i name="volume">     59.31900000 </i>
   <varray name="rec_basis" >
    <v>       0.25641026       0.00000000       0.00000000 </v>
    <v>       0.00000000       0.25641026       0.00000000 </v>
    <v>       0.00000000       0.00000000       0.25641026 </v>
   </varray>
  </crystal>
  <varray name="positions" >
   <v>       0.50000000       0.50000000       0.50000000 </v>
   <v>       0.00000000       0.00000000       0.00000000 </v>
   <v>       0.50000000       0.00000000       0.00000000 </v>
   <v>       0.00000000       0.50000000       0.00000000 </v>
   <v>       0.00000000       0.00000000       0.50000000 </v>
  </varray>
 </structure>
</modeling>
