   38   38  200    1
  0.1534737E+03  0.1800000E-08  0.1800000E-08  0.1800000E-08  0.5000000E-16
  1.000000000000000E-004
  CAR 
 Pt cube particle                        
    380      1    228
