       N       E                     dE             d eps       ncg     rms          rms(c)
RMM:   1     0.473934938967E+04    0.47393E+04   -0.69570E+04   228   0.680E+02
RMM:   2     0.269908988696E+04   -0.20403E+04   -0.22454E+04   228   0.170E+02
RMM:   3     0.176458680936E+04   -0.93450E+03   -0.12124E+04   228   0.122E+02
RMM:   4     0.103715883529E+04   -0.72743E+03   -0.77976E+03   228   0.119E+02
RMM:   5     0.587822361720E+03   -0.44934E+03   -0.42152E+03   228   0.882E+01
RMM:   6     0.273337477006E+03   -0.31448E+03   -0.26841E+03   228   0.827E+01
RMM:   7     0.104812312328E+03   -0.16853E+03   -0.14791E+03   228   0.612E+01
RMM:   8    -0.203466162111E+02   -0.12516E+03   -0.97638E+02   228   0.650E+01
RMM:   9    -0.120330712638E+03   -0.99984E+02   -0.92181E+02   624   0.431E+01
RMM:  10    -0.160965332121E+03   -0.40635E+02   -0.36851E+02   718   0.148E+01
RMM:  11    -0.180553478529E+03   -0.19588E+02   -0.16316E+02   745   0.782E+00
RMM:  12    -0.188081665998E+03   -0.75282E+01   -0.68728E+01   741   0.422E+00    0.215E+01
RMM:  13    -0.184310290062E+03    0.37714E+01   -0.10350E+02   533   0.202E+01    0.171E+01
RMM:  14    -0.181919526351E+03    0.23908E+01   -0.41654E+01   510   0.133E+01    0.912E+00
RMM:  15    -0.181180410598E+03    0.73912E+00   -0.16897E+01   560   0.595E+00    0.552E+00
RMM:  16    -0.181666185612E+03   -0.48578E+00   -0.94226E+00   568   0.328E+00    0.425E+00
RMM:  17    -0.182171540613E+03   -0.50536E+00   -0.56144E+00   587   0.222E+00    0.365E+00
RMM:  18    -0.182541075847E+03   -0.36954E+00   -0.29888E+00   573   0.156E+00    0.293E+00
RMM:  19    -0.182708025931E+03   -0.16695E+00   -0.15133E+00   573   0.105E+00    0.254E+00
RMM:  20    -0.182851200274E+03   -0.14317E+00   -0.78892E-01   566   0.873E-01    0.252E+00
RMM:  21    -0.182860252887E+03   -0.90526E-02   -0.36234E-01   523   0.803E-01    0.191E+00
RMM:  22    -0.182855542839E+03    0.47100E-02   -0.17688E-01   515   0.702E-01    0.157E+00
RMM:  23    -0.182843488602E+03    0.12054E-01   -0.87677E-02   504   0.588E-01    0.118E+00
RMM:  24    -0.182831703216E+03    0.11785E-01   -0.31242E-02   499   0.412E-01    0.113E+00
RMM:  25    -0.182818244810E+03    0.13458E-01   -0.17520E-02   496   0.306E-01    0.683E-01
RMM:  26    -0.182810111758E+03    0.81331E-02   -0.90513E-03   489   0.226E-01    0.400E-01
RMM:  27    -0.182805744140E+03    0.43676E-02   -0.47090E-03   483   0.155E-01    0.236E-01
RMM:  28    -0.182804069037E+03    0.16751E-02   -0.21986E-03   484   0.105E-01    0.166E-01
RMM:  29    -0.182804136385E+03   -0.67348E-04   -0.10376E-03   436   0.709E-02    0.100E-01
RMM:  30    -0.182805052667E+03   -0.91628E-03   -0.54143E-04   354   0.533E-02    0.989E-02
RMM:  31    -0.182806898582E+03   -0.18459E-02   -0.37592E-04   311   0.460E-02    0.426E-02
RMM:  32    -0.182809951752E+03   -0.30532E-02   -0.47264E-04   321   0.411E-02    0.705E-02
RMM:  33    -0.182813457974E+03   -0.35062E-02   -0.63037E-04   328   0.432E-02    0.367E-02
RMM:  34    -0.182815471767E+03   -0.20138E-02   -0.43312E-04   314   0.308E-02    0.331E-02
RMM:  35    -0.182817414423E+03   -0.19427E-02   -0.46726E-04   324   0.289E-02    0.233E-02
RMM:  36    -0.182818331495E+03   -0.91707E-03   -0.26720E-04   296   0.239E-02    0.128E-02
RMM:  37    -0.182819002190E+03   -0.67069E-03   -0.21062E-04   284   0.208E-02    0.134E-02
RMM:  38    -0.182819227283E+03   -0.22509E-03   -0.93719E-05   258   0.182E-02    0.101E-02
RMM:  39    -0.182819346632E+03   -0.11935E-03   -0.39514E-05   215   0.134E-02    0.669E-03
RMM:  40    -0.182819454285E+03   -0.10765E-03   -0.19762E-05   177   0.104E-02    0.384E-03
RMM:  41    -0.182819539727E+03   -0.85441E-04   -0.10007E-05   158   0.786E-03
   1 F= -.18281954E+03 E0= -.18284348E+03  d E =-.182820E+03
       N       E                     dE             d eps       ncg     rms          rms(c)
RMM:   1    -0.182824334508E+03   -0.48802E-02   -0.15077E-01   457   0.714E-01    0.695E-02
RMM:   2    -0.182824988657E+03   -0.65415E-03   -0.53247E-03   608   0.127E-01    0.120E-01
RMM:   3    -0.182824897652E+03    0.91005E-04   -0.37335E-04   306   0.523E-02
   2 F= -.18282490E+03 E0= -.18284843E+03  d E =-.535793E-02
       N       E                     dE             d eps       ncg     rms          rms(c)
RMM:   1    -0.182835512804E+03   -0.10524E-01   -0.13642E+00   457   0.215E+00    0.202E-01
RMM:   2    -0.182840867824E+03   -0.53550E-02   -0.46816E-02   606   0.384E-01    0.325E-01
RMM:   3    -0.182839574806E+03    0.12930E-02   -0.41332E-03   501   0.162E-01    0.165E-01
RMM:   4    -0.182839268125E+03    0.30668E-03   -0.42845E-04   334   0.475E-02    0.131E-01
RMM:   5    -0.182839112690E+03    0.15544E-03   -0.10259E-04   248   0.342E-02    0.994E-02
RMM:   6    -0.182839044707E+03    0.67984E-04   -0.11853E-04   246   0.290E-02
   3 F= -.18283904E+03 E0= -.18286286E+03  d E =-.195050E-01
       N       E                     dE             d eps       ncg     rms          rms(c)
RMM:   1    -0.182848178790E+03   -0.90661E-02   -0.54460E+00   457   0.430E+00    0.396E-01
RMM:   2    -0.182866902126E+03   -0.18723E-01   -0.18106E-01   609   0.739E-01    0.559E-01
RMM:   3    -0.182865154529E+03    0.17476E-02   -0.12965E-02   507   0.289E-01    0.477E-01
RMM:   4    -0.182862853258E+03    0.23013E-02   -0.25648E-03   475   0.118E-01    0.285E-01
RMM:   5    -0.182861777048E+03    0.10762E-02   -0.56496E-04   365   0.642E-02    0.165E-01
RMM:   6    -0.182861487062E+03    0.28999E-03   -0.87280E-04   428   0.648E-02    0.166E-01
RMM:   7    -0.182861130828E+03    0.35623E-03   -0.17762E-03   478   0.785E-02    0.124E-01
RMM:   8    -0.182860963680E+03    0.16715E-03   -0.44309E-04   328   0.472E-02    0.648E-02
RMM:   9    -0.182860925916E+03    0.37764E-04   -0.15531E-04   247   0.395E-02
   4 F= -.18286093E+03 E0= -.18288438E+03  d E =-.413862E-01
       N       E                     dE             d eps       ncg     rms          rms(c)
RMM:   1    -0.182835450245E+03    0.25513E-01   -0.21811E+01   457   0.859E+00    0.827E-01
RMM:   2    -0.182937381503E+03   -0.10193E+00   -0.78821E-01   601   0.161E+00    0.190E+00
RMM:   3    -0.182897418124E+03    0.39963E-01   -0.61124E-02   513   0.600E-01    0.833E-01
RMM:   4    -0.182889418721E+03    0.79994E-02   -0.16242E-02   462   0.300E-01    0.599E-01
RMM:   5    -0.182885647338E+03    0.37714E-02   -0.26840E-03   465   0.123E-01    0.354E-01
RMM:   6    -0.182884762219E+03    0.88512E-03   -0.15567E-03   485   0.827E-02    0.325E-01
RMM:   7    -0.182884189079E+03    0.57314E-03   -0.53027E-03   500   0.132E-01    0.355E-01
RMM:   8    -0.182882852721E+03    0.13364E-02   -0.29160E-03   527   0.103E-01    0.132E-01
RMM:   9    -0.182882552619E+03    0.30010E-03   -0.87719E-04   440   0.697E-02    0.800E-02
RMM:  10    -0.182882482143E+03    0.70475E-04   -0.13629E-04   253   0.328E-02
   5 F= -.18288248E+03 E0= -.18290580E+03  d E =-.629424E-01
       N       E                     dE             d eps       ncg     rms          rms(c)
RMM:   1    -0.182879198910E+03    0.33537E-02   -0.15567E+00   457   0.229E+00    0.251E-01
RMM:   2    -0.182885143655E+03   -0.59447E-02   -0.58467E-02   611   0.416E-01    0.327E-01
RMM:   3    -0.182884552143E+03    0.59151E-03   -0.48811E-03   492   0.176E-01    0.273E-01
RMM:   4    -0.182883887042E+03    0.66510E-03   -0.96144E-04   442   0.726E-02    0.182E-01
RMM:   5    -0.182883413667E+03    0.47338E-03   -0.23041E-04   275   0.445E-02    0.827E-02
RMM:   6    -0.182883322324E+03    0.91343E-04   -0.10948E-04   246   0.326E-02
   6 F= -.18288332E+03 E0= -.18290708E+03  d E =-.637826E-01
       N       E                     dE             d eps       ncg     rms          rms(c)
RMM:   1    -0.182886642272E+03   -0.32286E-02   -0.32474E+00   457   0.334E+00    0.274E-01
RMM:   2    -0.182896714789E+03   -0.10073E-01   -0.98492E-02   610   0.572E-01    0.342E-01
RMM:   3    -0.182896325554E+03    0.38924E-03   -0.70292E-03   509   0.202E-01    0.304E-01
RMM:   4    -0.182895475812E+03    0.84974E-03   -0.91010E-04   445   0.731E-02    0.200E-01
RMM:   5    -0.182894937894E+03    0.53792E-03   -0.25937E-04   283   0.460E-02    0.126E-01
RMM:   6    -0.182894787414E+03    0.15048E-03   -0.34894E-04   293   0.483E-02    0.128E-01
RMM:   7    -0.182894485071E+03    0.30234E-03   -0.14217E-03   468   0.770E-02    0.663E-02
RMM:   8    -0.182894455622E+03    0.29448E-04   -0.26953E-04   267   0.417E-02
   7 F= -.18289446E+03 E0= -.18291881E+03  d E =-.111333E-01
       N       E                     dE             d eps       ncg     rms          rms(c)
RMM:   1    -0.182838480973E+03    0.56004E-01   -0.29232E+01   457   0.100E+01    0.924E-01
RMM:   2    -0.182998020705E+03   -0.15954E+00   -0.98315E-01   589   0.197E+00    0.255E+00
RMM:   3    -0.182924964661E+03    0.73056E-01   -0.10011E-01   531   0.709E-01    0.896E-01
RMM:   4    -0.182915222494E+03    0.97422E-02   -0.22895E-02   460   0.358E-01    0.642E-01
RMM:   5    -0.182911001783E+03    0.42207E-02   -0.43832E-03   469   0.156E-01    0.429E-01
RMM:   6    -0.182909893830E+03    0.11080E-02   -0.17669E-03   474   0.937E-02    0.376E-01
RMM:   7    -0.182909548712E+03    0.34512E-03   -0.40347E-03   524   0.123E-01    0.429E-01
RMM:   8    -0.182907041900E+03    0.25068E-02   -0.59261E-03   495   0.150E-01    0.156E-01
RMM:   9    -0.182906598346E+03    0.44355E-03   -0.18206E-03   491   0.977E-02    0.907E-02
RMM:  10    -0.182906527856E+03    0.70491E-04   -0.26870E-04   276   0.424E-02
   8 F= -.18290653E+03 E0= -.18293233E+03  d E =-.232055E-01
       N       E                     dE             d eps       ncg     rms          rms(c)
RMM:   1    -0.182900649196E+03    0.59492E-02   -0.53582E+00   457   0.425E+00    0.385E-01
RMM:   2    -0.182923375303E+03   -0.22726E-01   -0.15687E-01   578   0.795E-01    0.844E-01
RMM:   3    -0.182917185719E+03    0.61896E-02   -0.17716E-02   542   0.301E-01    0.447E-01
RMM:   4    -0.182914583340E+03    0.26024E-02   -0.39935E-03   460   0.155E-01    0.247E-01
RMM:   5    -0.182913653956E+03    0.92938E-03   -0.62610E-04   379   0.642E-02    0.144E-01
RMM:   6    -0.182913456127E+03    0.19783E-03   -0.35685E-04   295   0.498E-02    0.143E-01
RMM:   7    -0.182913228355E+03    0.22777E-03   -0.13788E-03   473   0.793E-02    0.149E-01
RMM:   8    -0.182913015638E+03    0.21272E-03   -0.59462E-04   379   0.544E-02    0.776E-02
RMM:   9    -0.182912919529E+03    0.96109E-04   -0.18393E-04   253   0.412E-02
   9 F= -.18291292E+03 E0= -.18293648E+03  d E =-.639167E-02
       N       E                     dE             d eps       ncg     rms          rms(c)
RMM:   1    -0.182908765660E+03    0.42500E-02   -0.20690E+00   457   0.264E+00    0.230E-01
RMM:   2    -0.182916313940E+03   -0.75483E-02   -0.59138E-02   588   0.475E-01    0.427E-01
RMM:   3    -0.182915119419E+03    0.11945E-02   -0.59191E-03   531   0.178E-01    0.285E-01
RMM:   4    -0.182914242950E+03    0.87647E-03   -0.12849E-03   440   0.884E-02    0.153E-01
RMM:   5    -0.182913829823E+03    0.41313E-03   -0.21836E-04   272   0.420E-02    0.885E-02
RMM:   6    -0.182913730818E+03    0.99006E-04   -0.14857E-04   247   0.372E-02
  10 F= -.18291373E+03 E0= -.18293604E+03  d E =-.720296E-02
       N       E                     dE             d eps       ncg     rms          rms(c)
RMM:   1    -0.182910735011E+03    0.30948E-02   -0.35693E+00   457   0.347E+00    0.293E-01
RMM:   2    -0.182924388834E+03   -0.13654E-01   -0.95211E-02   575   0.619E-01    0.624E-01
RMM:   3    -0.182920869109E+03    0.35197E-02   -0.10980E-02   540   0.244E-01    0.334E-01
RMM:   4    -0.182919555980E+03    0.13131E-02   -0.21994E-03   467   0.113E-01    0.215E-01
RMM:   5    -0.182918948730E+03    0.60725E-03   -0.35674E-04   301   0.509E-02    0.119E-01
RMM:   6    -0.182918721383E+03    0.22735E-03   -0.33831E-04   287   0.513E-02    0.121E-01
RMM:   7    -0.182918587418E+03    0.13396E-03   -0.11096E-03   460   0.715E-02    0.136E-01
RMM:   8    -0.182918391278E+03    0.19614E-03   -0.32833E-04   283   0.456E-02    0.438E-02
RMM:   9    -0.182918346110E+03    0.45168E-04   -0.13909E-04   248   0.397E-02
  11 F= -.18291835E+03 E0= -.18294148E+03  d E =-.461529E-02
       N       E                     dE             d eps       ncg     rms          rms(c)
RMM:   1    -0.182898089034E+03    0.20302E-01   -0.10024E+01   457   0.581E+00    0.492E-01
RMM:   2    -0.182934066605E+03   -0.35978E-01   -0.27633E-01   575   0.107E+00    0.921E-01
RMM:   3    -0.182926253785E+03    0.78128E-02   -0.30925E-02   540   0.401E-01    0.546E-01
RMM:   4    -0.182923600259E+03    0.26535E-02   -0.54404E-03   476   0.172E-01    0.380E-01
RMM:   5    -0.182921766961E+03    0.18333E-02   -0.10895E-03   454   0.851E-02    0.196E-01
RMM:   6    -0.182921180960E+03    0.58600E-03   -0.83557E-04   444   0.666E-02    0.184E-01
RMM:   7    -0.182920695838E+03    0.48512E-03   -0.25194E-03   465   0.963E-02    0.191E-01
RMM:   8    -0.182920360665E+03    0.33517E-03   -0.85196E-04   428   0.632E-02    0.839E-02
RMM:   9    -0.182920230016E+03    0.13065E-03   -0.26726E-04   272   0.457E-02    0.541E-02
RMM:  10    -0.182920194491E+03    0.35524E-04   -0.83741E-05   240   0.339E-02
  12 F= -.18292019E+03 E0= -.18294474E+03  d E =-.646367E-02
       N       E                     dE             d eps       ncg     rms          rms(c)
RMM:   1    -0.182911980002E+03    0.82500E-02   -0.56789E+00   457   0.435E+00    0.350E-01
RMM:   2    -0.182928444998E+03   -0.16465E-01   -0.15035E-01   582   0.782E-01    0.477E-01
RMM:   3    -0.182927203277E+03    0.12417E-02   -0.14805E-02   532   0.277E-01    0.346E-01
RMM:   4    -0.182926243012E+03    0.96027E-03   -0.18361E-03   470   0.104E-01    0.266E-01
RMM:   5    -0.182925378797E+03    0.86421E-03   -0.42338E-04   325   0.555E-02    0.146E-01
RMM:   6    -0.182925062263E+03    0.31653E-03   -0.47287E-04   346   0.578E-02    0.139E-01
RMM:   7    -0.182924664469E+03    0.39779E-03   -0.16459E-03   461   0.831E-02    0.107E-01
RMM:   8    -0.182924556681E+03    0.10779E-03   -0.30477E-04   278   0.450E-02    0.619E-02
RMM:   9    -0.182924526917E+03    0.29765E-04   -0.16160E-04   248   0.422E-02
  13 F= -.18292453E+03 E0= -.18295038E+03  d E =-.433243E-02
       N       E                     dE             d eps       ncg     rms          rms(c)
RMM:   1    -0.182881755026E+03    0.42802E-01   -0.20063E+01   457   0.819E+00    0.661E-01
RMM:   2    -0.182944421671E+03   -0.62667E-01   -0.53649E-01   576   0.154E+00    0.109E+00
RMM:   3    -0.182936679195E+03    0.77425E-02   -0.55405E-02   539   0.517E-01    0.749E-01
RMM:   4    -0.182931456945E+03    0.52222E-02   -0.90341E-03   465   0.227E-01    0.502E-01
RMM:   5    -0.182928327408E+03    0.31295E-02   -0.19000E-03   459   0.112E-01    0.277E-01
RMM:   6    -0.182927460622E+03    0.86679E-03   -0.16168E-03   461   0.912E-02    0.261E-01
RMM:   7    -0.182925813148E+03    0.16475E-02   -0.53146E-03   460   0.136E-01    0.129E-01
RMM:   8    -0.182925754651E+03    0.58497E-04   -0.13184E-03   494   0.809E-02    0.119E-01
RMM:   9    -0.182925679469E+03    0.75181E-04   -0.28144E-04   274   0.440E-02
  14 F= -.18292568E+03 E0= -.18295365E+03  d E =-.548498E-02
       N       E                     dE             d eps       ncg     rms          rms(c)
RMM:   1    -0.182919189050E+03    0.65656E-02   -0.45797E+00   457   0.388E+00    0.322E-01
RMM:   2    -0.182933160783E+03   -0.13972E-01   -0.11540E-01   568   0.706E-01    0.536E-01
RMM:   3    -0.182931421655E+03    0.17391E-02   -0.12858E-02   544   0.254E-01    0.371E-01
RMM:   4    -0.182930190479E+03    0.12312E-02   -0.21911E-03   463   0.114E-01    0.235E-01
RMM:   5    -0.182929348641E+03    0.84184E-03   -0.48412E-04   347   0.584E-02    0.126E-01
RMM:   6    -0.182929111500E+03    0.23714E-03   -0.35129E-04   292   0.531E-02    0.118E-01
RMM:   7    -0.182928981908E+03    0.12959E-03   -0.99842E-04   451   0.715E-02    0.137E-01
RMM:   8    -0.182928777037E+03    0.20487E-03   -0.32460E-04   285   0.440E-02    0.577E-02
RMM:   9    -0.182928724187E+03    0.52850E-04   -0.14065E-04   245   0.398E-02
  15 F= -.18292872E+03 E0= -.18295657E+03  d E =-.304472E-02
       N       E                     dE             d eps       ncg     rms          rms(c)
RMM:   1    -0.182908046801E+03    0.20730E-01   -0.10497E+01   457   0.587E+00    0.464E-01
RMM:   2    -0.182941261026E+03   -0.33214E-01   -0.26011E-01   564   0.107E+00    0.881E-01
RMM:   3    -0.182935451920E+03    0.58091E-02   -0.29026E-02   550   0.375E-01    0.538E-01
RMM:   4    -0.182932355603E+03    0.30963E-02   -0.47708E-03   466   0.167E-01    0.322E-01
RMM:   5    -0.182930945017E+03    0.14106E-02   -0.91851E-04   446   0.760E-02    0.195E-01
RMM:   6    -0.182930567772E+03    0.37724E-03   -0.80630E-04   452   0.649E-02    0.191E-01
RMM:   7    -0.182930533386E+03    0.34387E-04   -0.17592E-03   463   0.835E-02    0.263E-01
RMM:   8    -0.182929732864E+03    0.80052E-03   -0.11721E-03   456   0.716E-02    0.791E-02
RMM:   9    -0.182929554099E+03    0.17877E-03   -0.28034E-04   278   0.448E-02    0.475E-02
RMM:  10    -0.182929536029E+03    0.18070E-04   -0.84748E-05   240   0.314E-02
  16 F= -.18292954E+03 E0= -.18295688E+03  d E =-.385656E-02
       N       E                     dE             d eps       ncg     rms          rms(c)
RMM:   1    -0.182921975978E+03    0.75781E-02   -0.54008E+00   457   0.422E+00    0.333E-01
RMM:   2    -0.182939550434E+03   -0.17574E-01   -0.13465E-01   568   0.758E-01    0.629E-01
RMM:   3    -0.182936191076E+03    0.33594E-02   -0.15240E-02   549   0.275E-01    0.359E-01
RMM:   4    -0.182934996051E+03    0.11950E-02   -0.23484E-03   472   0.115E-01    0.252E-01
RMM:   5    -0.182934112768E+03    0.88328E-03   -0.45597E-04   345   0.559E-02    0.135E-01
RMM:   6    -0.182933867564E+03    0.24520E-03   -0.44557E-04   336   0.556E-02    0.137E-01
RMM:   7    -0.182933677998E+03    0.18957E-03   -0.11067E-03   457   0.719E-02    0.145E-01
RMM:   8    -0.182933463754E+03    0.21424E-03   -0.46660E-04   343   0.507E-02    0.691E-02
RMM:   9    -0.182933388018E+03    0.75736E-04   -0.16689E-04   249   0.406E-02
  17 F= -.18293339E+03 E0= -.18296228E+03  d E =-.385199E-02
       N       E                     dE             d eps       ncg     rms          rms(c)
RMM:   1    -0.182919562019E+03    0.13902E-01   -0.67923E+00   457   0.473E+00    0.375E-01
RMM:   2    -0.182941890337E+03   -0.22328E-01   -0.16915E-01   566   0.855E-01    0.720E-01
RMM:   3    -0.182937380668E+03    0.45097E-02   -0.19370E-02   551   0.306E-01    0.401E-01
RMM:   4    -0.182935860496E+03    0.15202E-02   -0.30016E-03   472   0.130E-01    0.281E-01
RMM:   5    -0.182934788724E+03    0.10718E-02   -0.58871E-04   377   0.627E-02    0.149E-01
RMM:   6    -0.182934473811E+03    0.31491E-03   -0.63624E-04   418   0.616E-02    0.149E-01
RMM:   7    -0.182934151297E+03    0.32251E-03   -0.13293E-03   462   0.737E-02    0.135E-01
RMM:   8    -0.182933957773E+03    0.19352E-03   -0.46121E-04   337   0.505E-02    0.772E-02
RMM:   9    -0.182933887836E+03    0.69937E-04   -0.16681E-04   248   0.406E-02
  18 F= -.18293389E+03 E0= -.18296432E+03  d E =-.435181E-02
       N       E                     dE             d eps       ncg     rms          rms(c)
RMM:   1    -0.182921028315E+03    0.12929E-01   -0.73062E+00   457   0.495E+00    0.392E-01
RMM:   2    -0.182943403870E+03   -0.22376E-01   -0.18990E-01   575   0.906E-01    0.617E-01
RMM:   3    -0.182941090426E+03    0.23134E-02   -0.20725E-02   542   0.315E-01    0.422E-01
RMM:   4    -0.182939431358E+03    0.16591E-02   -0.27746E-03   473   0.127E-01    0.292E-01
RMM:   5    -0.182938248145E+03    0.11832E-02   -0.61402E-04   387   0.643E-02    0.163E-01
RMM:   6    -0.182937892120E+03    0.35603E-03   -0.54043E-04   385   0.587E-02    0.150E-01
RMM:   7    -0.182937534651E+03    0.35747E-03   -0.18368E-03   463   0.875E-02    0.143E-01
RMM:   8    -0.182937358063E+03    0.17659E-03   -0.67488E-04   407   0.564E-02    0.809E-02
RMM:   9    -0.182937281588E+03    0.76474E-04   -0.16773E-04   254   0.383E-02
  19 F= -.18293728E+03 E0= -.18296738E+03  d E =-.339375E-02
       N       E                     dE             d eps       ncg     rms          rms(c)
RMM:   1    -0.182925310317E+03    0.12048E-01   -0.54607E+00   457   0.428E+00    0.346E-01
RMM:   2    -0.182941711615E+03   -0.16401E-01   -0.14255E-01   574   0.782E-01    0.509E-01
RMM:   3    -0.182940419368E+03    0.12922E-02   -0.15666E-02   541   0.273E-01    0.372E-01
RMM:   4    -0.182939180343E+03    0.12390E-02   -0.20696E-03   472   0.110E-01    0.257E-01
RMM:   5    -0.182938233707E+03    0.94664E-03   -0.47507E-04   343   0.582E-02    0.139E-01
RMM:   6    -0.182937956293E+03    0.27741E-03   -0.38847E-04   302   0.549E-02    0.126E-01
RMM:   7    -0.182937775471E+03    0.18082E-03   -0.13321E-03   460   0.785E-02    0.133E-01
RMM:   8    -0.182937588341E+03    0.18713E-03   -0.47741E-04   346   0.503E-02    0.701E-02
RMM:   9    -0.182937538041E+03    0.50300E-04   -0.16442E-04   250   0.404E-02
  20 F= -.18293754E+03 E0= -.18296769E+03  d E =-.365020E-02
       N       E                     dE             d eps       ncg     rms          rms(c)
RMM:   1    -0.182930377313E+03    0.72110E-02   -0.49301E+00   457   0.404E+00    0.315E-01
RMM:   2    -0.182945312254E+03   -0.14935E-01   -0.11816E-01   557   0.739E-01    0.555E-01
RMM:   3    -0.182943100640E+03    0.22116E-02   -0.14593E-02   560   0.262E-01    0.346E-01
RMM:   4    -0.182941867239E+03    0.12334E-02   -0.19131E-03   465   0.105E-01    0.225E-01
RMM:   5    -0.182941187463E+03    0.67978E-03   -0.43236E-04   328   0.546E-02    0.137E-01
RMM:   6    -0.182940955353E+03    0.23211E-03   -0.36002E-04   297   0.549E-02    0.135E-01
RMM:   7    -0.182941032309E+03   -0.76956E-04   -0.88568E-04   458   0.655E-02
  21 F= -.18294103E+03 E0= -.18297154E+03  d E =-.349427E-02
       N       E                     dE             d eps       ncg     rms          rms(c)
RMM:   1    -0.182922823015E+03    0.18132E-01   -0.84724E+00   457   0.530E+00    0.414E-01
RMM:   2    -0.182948377748E+03   -0.25555E-01   -0.19967E-01   555   0.967E-01    0.735E-01
RMM:   3    -0.182944118910E+03    0.42588E-02   -0.25165E-02   562   0.342E-01    0.450E-01
RMM:   4    -0.182942077062E+03    0.20418E-02   -0.33782E-03   469   0.138E-01    0.290E-01
RMM:   5    -0.182940950654E+03    0.11264E-02   -0.77705E-04   430   0.700E-02    0.178E-01
RMM:   6    -0.182940633744E+03    0.31691E-03   -0.72547E-04   440   0.634E-02    0.181E-01
RMM:   7    -0.182940709594E+03   -0.75850E-04   -0.13986E-03   464   0.786E-02    0.242E-01
RMM:   8    -0.182940005468E+03    0.70413E-03   -0.98916E-04   457   0.660E-02    0.703E-02
RMM:   9    -0.182939851478E+03    0.15399E-03   -0.22058E-04   267   0.437E-02    0.393E-02
RMM:  10    -0.182939829213E+03    0.22265E-04   -0.61365E-05   238   0.284E-02
  22 F= -.18293983E+03 E0= -.18296886E+03  d E =-.229117E-02
       N       E                     dE             d eps       ncg     rms          rms(c)
RMM:   1    -0.182937826009E+03    0.20255E-02   -0.14675E+00   457   0.220E+00    0.154E-01
RMM:   2    -0.182942019633E+03   -0.41936E-02   -0.33812E-02   557   0.395E-01    0.281E-01
RMM:   3    -0.182941484037E+03    0.53560E-03   -0.39731E-03   556   0.138E-01    0.173E-01
RMM:   4    -0.182941129629E+03    0.35441E-03   -0.37374E-04   324   0.494E-02    0.112E-01
RMM:   5    -0.182940979250E+03    0.15038E-03   -0.11040E-04   250   0.354E-02    0.814E-02
RMM:   6    -0.182940905605E+03    0.73645E-04   -0.11302E-04   241   0.303E-02
  23 F= -.18294091E+03 E0= -.18297053E+03  d E =-.336756E-02
       N       E                     dE             d eps       ncg     rms          rms(c)
RMM:   1    -0.182939623820E+03    0.13554E-02   -0.72591E-01   457   0.156E+00    0.153E-01
RMM:   2    -0.182946365222E+03   -0.67414E-02   -0.18430E-02   551   0.287E-01    0.631E-01
RMM:   3    -0.182941823235E+03    0.45420E-02   -0.34330E-03   467   0.147E-01    0.134E-01
RMM:   4    -0.182941075519E+03    0.74772E-03   -0.86833E-04   408   0.768E-02    0.900E-02
RMM:   5    -0.182940960404E+03    0.11511E-03   -0.11004E-04   249   0.289E-02    0.573E-02
RMM:   6    -0.182940970112E+03   -0.97078E-05   -0.84648E-05   249   0.280E-02
  24 F= -.18294097E+03 E0= -.18297058E+03  d E =-.343207E-02
       N       E                     dE             d eps       ncg     rms          rms(c)
RMM:   1    -0.182939213853E+03    0.17466E-02   -0.16451E+00   457   0.234E+00    0.191E-01
RMM:   2    -0.182945529285E+03   -0.63154E-02   -0.43911E-02   578   0.427E-01    0.420E-01
RMM:   3    -0.182943874323E+03    0.16550E-02   -0.51330E-03   539   0.168E-01    0.215E-01
RMM:   4    -0.182943157226E+03    0.71710E-03   -0.88023E-04   401   0.733E-02    0.126E-01
RMM:   5    -0.182942919010E+03    0.23822E-03   -0.13711E-04   252   0.347E-02    0.804E-02
RMM:   6    -0.182942870218E+03    0.48792E-04   -0.94438E-05   241   0.307E-02
  25 F= -.18294287E+03 E0= -.18297208E+03  d E =-.190011E-02
       N       E                     dE             d eps       ncg     rms          rms(c)
RMM:   1    -0.182939306703E+03    0.36123E-02   -0.18074E+00   457   0.246E+00    0.214E-01
RMM:   2    -0.182948510691E+03   -0.92040E-02   -0.45431E-02   567   0.436E-01    0.631E-01
RMM:   3    -0.182944380235E+03    0.41305E-02   -0.65832E-03   540   0.192E-01    0.228E-01
RMM:   4    -0.182943385151E+03    0.99508E-03   -0.12959E-03   434   0.883E-02    0.144E-01
RMM:   5    -0.182943075193E+03    0.30996E-03   -0.16646E-04   264   0.342E-02    0.943E-02
RMM:   6    -0.182943052031E+03    0.23161E-04   -0.21974E-04   259   0.425E-02
  26 F= -.18294305E+03 E0= -.18297109E+03  d E =-.208192E-02
       N       E                     dE             d eps       ncg     rms          rms(c)
RMM:   1    -0.182942819715E+03    0.25548E-03   -0.12129E-01   458   0.629E-01    0.117E-01
RMM:   2    -0.182946703985E+03   -0.38843E-02   -0.64521E-03   516   0.171E-01    0.515E-01
RMM:   3    -0.182943523472E+03    0.31805E-02   -0.18056E-03   455   0.107E-01    0.115E-01
RMM:   4    -0.182942967769E+03    0.55570E-03   -0.50392E-04   339   0.590E-02    0.354E-02
RMM:   5    -0.182942933115E+03    0.34654E-04   -0.85581E-05   247   0.297E-02
  27 F= -.18294293E+03 E0= -.18297132E+03  d E =-.196300E-02
       N       E                     dE             d eps       ncg     rms          rms(c)
RMM:   1    -0.182940461418E+03    0.25064E-02   -0.15969E+00   457   0.230E+00    0.182E-01
RMM:   2    -0.182945489476E+03   -0.50281E-02   -0.40058E-02   568   0.413E-01    0.315E-01
RMM:   3    -0.182944817839E+03    0.67164E-03   -0.46522E-03   549   0.156E-01    0.213E-01
RMM:   4    -0.182944298225E+03    0.51961E-03   -0.70524E-04   381   0.653E-02    0.128E-01
RMM:   5    -0.182944045827E+03    0.25240E-03   -0.14603E-04   255   0.387E-02    0.783E-02
RMM:   6    -0.182943995525E+03    0.50303E-04   -0.99109E-05   244   0.302E-02
  28 F= -.18294400E+03 E0= -.18297221E+03  d E =-.106241E-02
       N       E                     dE             d eps       ncg     rms          rms(c)
RMM:   1    -0.182941899313E+03    0.21465E-02   -0.10517E+00   457   0.188E+00    0.181E-01
RMM:   2    -0.182949629298E+03   -0.77300E-02   -0.26938E-02   555   0.343E-01    0.656E-01
RMM:   3    -0.182945024632E+03    0.46047E-02   -0.46623E-03   483   0.168E-01    0.165E-01
RMM:   4    -0.182944126329E+03    0.89830E-03   -0.11054E-03   440   0.838E-02    0.106E-01
RMM:   5    -0.182943967665E+03    0.15866E-03   -0.12284E-04   252   0.289E-02    0.740E-02
RMM:   6    -0.182943956196E+03    0.11468E-04   -0.94145E-05   248   0.313E-02
  29 F= -.18294396E+03 E0= -.18297168E+03  d E =-.102308E-02
       N       E                     dE             d eps       ncg     rms          rms(c)
RMM:   1    -0.182943743340E+03    0.22432E-03   -0.11762E-01   457   0.620E-01    0.994E-02
RMM:   2    -0.182945840514E+03   -0.20972E-02   -0.53847E-03   546   0.150E-01    0.374E-01
RMM:   3    -0.182944321252E+03    0.15193E-02   -0.12525E-03   453   0.899E-02    0.112E-01
RMM:   4    -0.182943931721E+03    0.38953E-03   -0.36291E-04   317   0.505E-02    0.350E-02
RMM:   5    -0.182943904693E+03    0.27028E-04   -0.76168E-05   242   0.291E-02
  30 F= -.18294390E+03 E0= -.18297148E+03  d E =-.971578E-03
       N       E                     dE             d eps       ncg     rms          rms(c)
RMM:   1    -0.182943238950E+03    0.69277E-03   -0.67300E-01   457   0.149E+00    0.116E-01
RMM:   2    -0.182945251447E+03   -0.20125E-02   -0.16681E-02   570   0.262E-01    0.192E-01
RMM:   3    -0.182944958281E+03    0.29317E-03   -0.18771E-03   524   0.995E-02    0.115E-01
RMM:   4    -0.182944822087E+03    0.13619E-03   -0.20883E-04   270   0.395E-02    0.904E-02
RMM:   5    -0.182944732305E+03    0.89782E-04   -0.88697E-05   246   0.348E-02
  31 F= -.18294473E+03 E0= -.18297285E+03  d E =-.827612E-03
       N       E                     dE             d eps       ncg     rms          rms(c)
RMM:   1    -0.182944174732E+03    0.64736E-03   -0.36909E-01   457   0.111E+00    0.910E-02
RMM:   2    -0.182945558658E+03   -0.13839E-02   -0.84337E-03   557   0.190E-01    0.212E-01
RMM:   3    -0.182945063907E+03    0.49475E-03   -0.10273E-03   454   0.770E-02    0.851E-02
RMM:   4    -0.182944952645E+03    0.11126E-03   -0.15940E-04   257   0.366E-02    0.702E-02
RMM:   5    -0.182944893619E+03    0.59026E-04   -0.60181E-05   239   0.286E-02
  32 F= -.18294489E+03 E0= -.18297315E+03  d E =-.988926E-03
       N       E                     dE             d eps       ncg     rms          rms(c)
RMM:   1    -0.182944092891E+03    0.85975E-03   -0.72618E-01   457   0.154E+00    0.135E-01
RMM:   2    -0.182948050624E+03   -0.39577E-02   -0.17379E-02   551   0.274E-01    0.455E-01
RMM:   3    -0.182946215521E+03    0.18351E-02   -0.27192E-03   504   0.129E-01    0.128E-01
RMM:   4    -0.182945631286E+03    0.58423E-03   -0.54715E-04   349   0.608E-02    0.870E-02
RMM:   5    -0.182945528982E+03    0.10230E-03   -0.92275E-05   248   0.316E-02    0.573E-02
RMM:   6    -0.182945520467E+03    0.85146E-05   -0.66752E-05   241   0.246E-02
  33 F= -.18294552E+03 E0= -.18297432E+03  d E =-.626849E-03
       N       E                     dE             d eps       ncg     rms          rms(c)
RMM:   1    -0.182943724716E+03    0.18043E-02   -0.94506E-01   457   0.176E+00    0.141E-01
RMM:   2    -0.182947324399E+03   -0.35997E-02   -0.21776E-02   554   0.309E-01    0.367E-01
RMM:   3    -0.182946181796E+03    0.11426E-02   -0.30224E-03   542   0.128E-01    0.142E-01
RMM:   4    -0.182945776108E+03    0.40569E-03   -0.44057E-04   337   0.555E-02    0.996E-02
RMM:   5    -0.182945640680E+03    0.13543E-03   -0.92897E-05   248   0.323E-02    0.619E-02
RMM:   6    -0.182945630387E+03    0.10292E-04   -0.11608E-04   248   0.297E-02
  34 F= -.18294563E+03 E0= -.18297482E+03  d E =-.736769E-03
       N       E                     dE             d eps       ncg     rms          rms(c)
RMM:   1    -0.182944791448E+03    0.84923E-03   -0.55504E-01   457   0.135E+00    0.121E-01
RMM:   2    -0.182947136591E+03   -0.23451E-02   -0.13335E-02   545   0.250E-01    0.307E-01
RMM:   3    -0.182946309816E+03    0.82678E-03   -0.20439E-03   516   0.105E-01    0.130E-01
RMM:   4    -0.182945975540E+03    0.33428E-03   -0.36730E-04   315   0.531E-02    0.784E-02
RMM:   5    -0.182945899637E+03    0.75904E-04   -0.87274E-05   244   0.322E-02
  35 F= -.18294590E+03 E0= -.18297518E+03  d E =-.269250E-03
       N       E                     dE             d eps       ncg     rms          rms(c)
RMM:   1    -0.182945639497E+03    0.33604E-03   -0.17821E-01   458   0.765E-01    0.685E-02
RMM:   2    -0.182946275603E+03   -0.63611E-03   -0.37622E-03   542   0.132E-01    0.149E-01
RMM:   3    -0.182946052220E+03    0.22338E-03   -0.43381E-04   340   0.513E-02    0.659E-02
RMM:   4    -0.182945987330E+03    0.64891E-04   -0.11496E-04   249   0.338E-02
  36 F= -.18294599E+03 E0= -.18297563E+03  d E =-.356942E-03
       N       E                     dE             d eps       ncg     rms          rms(c)
RMM:   1    -0.182945937077E+03    0.11514E-03   -0.22647E-01   457   0.867E-01    0.760E-02
RMM:   2    -0.182946626860E+03   -0.68978E-03   -0.55707E-03   570   0.152E-01    0.121E-01
RMM:   3    -0.182946479930E+03    0.14693E-03   -0.56092E-04   377   0.588E-02    0.737E-02
RMM:   4    -0.182946429074E+03    0.50856E-04   -0.11394E-04   248   0.324E-02
  37 F= -.18294643E+03 E0= -.18297578E+03  d E =-.441744E-03
       N       E                     dE             d eps       ncg     rms          rms(c)
RMM:   1    -0.182946366368E+03    0.11356E-03   -0.90159E-02   457   0.547E-01    0.517E-02
RMM:   2    -0.182946677501E+03   -0.31113E-03   -0.20359E-03   533   0.934E-02    0.102E-01
RMM:   3    -0.182946578231E+03    0.99269E-04   -0.19743E-04   249   0.374E-02
  38 F= -.18294658E+03 E0= -.18297558E+03  d E =-.590902E-03
       N       E                     dE             d eps       ncg     rms          rms(c)
RMM:   1    -0.182946470808E+03    0.20669E-03   -0.89529E-03   455   0.177E-01    0.381E-02
RMM:   2    -0.182946490578E+03   -0.19770E-04   -0.27454E-04   246   0.505E-02
  39 F= -.18294649E+03 E0= -.18297537E+03  d E =-.503249E-03
       N       E                     dE             d eps       ncg     rms          rms(c)
RMM:   1    -0.182946500419E+03   -0.29611E-04   -0.65555E-03   452   0.153E-01    0.371E-02
RMM:   2    -0.182946988102E+03   -0.48768E-03   -0.35513E-04   299   0.588E-02    0.196E-01
RMM:   3    -0.182946563527E+03    0.42458E-03   -0.15364E-04   254   0.472E-02    0.162E-02
RMM:   4    -0.182946499005E+03    0.64522E-04   -0.40107E-05   247   0.192E-02
  40 F= -.18294650E+03 E0= -.18297561E+03  d E =-.511676E-03
       N       E                     dE             d eps       ncg     rms          rms(c)
RMM:   1    -0.182946483365E+03    0.80162E-04   -0.11363E-01   456   0.615E-01    0.485E-02
RMM:   2    -0.182946837498E+03   -0.35413E-03   -0.28367E-03   574   0.110E-01    0.812E-02
RMM:   3    -0.182946785975E+03    0.51523E-04   -0.23696E-04   256   0.414E-02
  41 F= -.18294679E+03 E0= -.18297574E+03  d E =-.286970E-03
       N       E                     dE             d eps       ncg     rms          rms(c)
RMM:   1    -0.182946761144E+03    0.76354E-04   -0.42865E-04   340   0.468E-02    0.346E-02
RMM:   2    -0.182946967926E+03   -0.20678E-03   -0.18525E-04   253   0.428E-02    0.133E-01
RMM:   3    -0.182946781707E+03    0.18622E-03   -0.97111E-05   248   0.393E-02    0.279E-02
RMM:   4    -0.182946741462E+03    0.40245E-04   -0.28088E-05   242   0.158E-02
  42 F= -.18294674E+03 E0= -.18297562E+03  d E =-.242457E-03
       N       E                     dE             d eps       ncg     rms          rms(c)
RMM:   1    -0.182946752565E+03    0.29142E-04   -0.11247E-03   451   0.629E-02    0.208E-02
RMM:   2    -0.182946859431E+03   -0.10687E-03   -0.98040E-05   246   0.277E-02    0.914E-02
RMM:   3    -0.182946772547E+03    0.86884E-04   -0.53486E-05   241   0.289E-02
  43 F= -.18294677E+03 E0= -.18297571E+03  d E =-.273542E-03
       N       E                     dE             d eps       ncg     rms          rms(c)
RMM:   1    -0.182946765228E+03    0.94203E-04   -0.43467E-03   455   0.120E-01    0.107E-02
RMM:   2    -0.182946784108E+03   -0.18879E-04   -0.81946E-05   231   0.244E-02
  44 F= -.18294678E+03 E0= -.18297563E+03  d E =-.285102E-03
       N       E                     dE             d eps       ncg     rms          rms(c)
RMM:   1    -0.182946762108E+03    0.31201E-05   -0.10706E-03   443   0.645E-02    0.124E-02
RMM:   2    -0.182946784323E+03   -0.22214E-04   -0.48983E-05   232   0.269E-02
  45 F= -.18294678E+03 E0= -.18297577E+03  d E =-.285317E-03
       N       E                     dE             d eps       ncg     rms          rms(c)
RMM:   1    -0.182946776059E+03   -0.13951E-04   -0.62486E-04   420   0.486E-02    0.128E-02
RMM:   2    -0.182946819788E+03   -0.43729E-04   -0.43504E-05   235   0.223E-02
  46 F= -.18294682E+03 E0= -.18297576E+03  d E =-.320783E-03
       N       E                     dE             d eps       ncg     rms          rms(c)
RMM:   1    -0.182946661279E+03    0.11478E-03   -0.11415E-01   457   0.617E-01    0.450E-02
RMM:   2    -0.182946968139E+03   -0.30686E-03   -0.28417E-03   583   0.109E-01    0.627E-02
RMM:   3    -0.182946956049E+03    0.12090E-04   -0.19739E-04   253   0.369E-02
  47 F= -.18294696E+03 E0= -.18297586E+03  d E =-.136261E-03
       N       E                     dE             d eps       ncg     rms          rms(c)
RMM:   1    -0.182946886639E+03    0.81500E-04   -0.81719E-03   454   0.169E-01    0.382E-02
RMM:   2    -0.182947148614E+03   -0.26197E-03   -0.35682E-04   290   0.502E-02    0.147E-01
RMM:   3    -0.182946936235E+03    0.21238E-03   -0.16441E-04   253   0.439E-02    0.280E-02
RMM:   4    -0.182946882797E+03    0.53438E-04   -0.74857E-05   246   0.244E-02
  48 F= -.18294688E+03 E0= -.18297569E+03  d E =-.630090E-04
       N       E                     dE             d eps       ncg     rms          rms(c)
RMM:   1    -0.182946889916E+03    0.46319E-04   -0.57375E-03   452   0.141E-01    0.150E-02
RMM:   2    -0.182946911671E+03   -0.21755E-04   -0.11457E-04   231   0.352E-02
  49 F= -.18294691E+03 E0= -.18297575E+03  d E =-.918832E-04
       N       E                     dE             d eps       ncg     rms          rms(c)
RMM:   1    -0.182946889492E+03    0.42478E-06   -0.12828E-03   450   0.714E-02    0.152E-02
RMM:   2    -0.182946958739E+03   -0.69248E-04   -0.71086E-05   237   0.300E-02
  50 F= -.18294696E+03 E0= -.18297563E+03  d E =-.138951E-03
       N       E                     dE             d eps       ncg     rms          rms(c)
RMM:   1    -0.182946906005E+03   -0.16513E-04   -0.41001E-04   331   0.420E-02    0.127E-02
RMM:   2    -0.182946932584E+03   -0.26580E-04   -0.48756E-05   235   0.242E-02
  51 F= -.18294693E+03 E0= -.18297549E+03  d E =-.112796E-03
       N       E                     dE             d eps       ncg     rms          rms(c)
RMM:   1    -0.182946903236E+03    0.27682E-05   -0.21457E-05   232   0.170E-02    0.126E-02
RMM:   2    -0.182946937192E+03   -0.33955E-04   -0.28776E-05   234   0.163E-02
  52 F= -.18294694E+03 E0= -.18297558E+03  d E =-.117404E-03
       N       E                     dE             d eps       ncg     rms          rms(c)
RMM:   1    -0.182946905420E+03   -0.21840E-05   -0.22255E-05   234   0.172E-02    0.122E-02
RMM:   2    -0.182946938000E+03   -0.32579E-04   -0.26761E-05   234   0.162E-02
  53 F= -.18294694E+03 E0= -.18297547E+03  d E =-.118211E-03
       N       E                     dE             d eps       ncg     rms          rms(c)
RMM:   1    -0.182946905692E+03   -0.27198E-06   -0.17769E-05   232   0.164E-02    0.130E-02
RMM:   2    -0.182946940678E+03   -0.34986E-04   -0.29974E-05   234   0.164E-02
  54 F= -.18294694E+03 E0= -.18297557E+03  d E =-.120890E-03
       N       E                     dE             d eps       ncg     rms          rms(c)
RMM:   1    -0.182946907164E+03   -0.14719E-05   -0.20105E-05   234   0.172E-02    0.129E-02
RMM:   2    -0.182946944465E+03   -0.37301E-04   -0.28115E-05   234   0.164E-02
  55 F= -.18294694E+03 E0= -.18297545E+03  d E =-.124677E-03
       N       E                     dE             d eps       ncg     rms          rms(c)
RMM:   1    -0.182946907502E+03   -0.33792E-06   -0.19367E-05   234   0.170E-02    0.143E-02
RMM:   2    -0.182946949392E+03   -0.41889E-04   -0.35571E-05   235   0.178E-02
  56 F= -.18294695E+03 E0= -.18297556E+03  d E =-.129603E-03
       N       E                     dE             d eps       ncg     rms          rms(c)
RMM:   1    -0.182946909639E+03   -0.21370E-05   -0.23824E-05   236   0.187E-02    0.142E-02
RMM:   2    -0.182946955360E+03   -0.45720E-04   -0.34055E-05   235   0.181E-02
  57 F= -.18294696E+03 E0= -.18297543E+03  d E =-.135571E-03
       N       E                     dE             d eps       ncg     rms          rms(c)
RMM:   1    -0.182946909947E+03   -0.30729E-06   -0.23350E-05   236   0.187E-02    0.158E-02
RMM:   2    -0.182946960025E+03   -0.50079E-04   -0.43551E-05   236   0.197E-02
  58 F= -.18294696E+03 E0= -.18297557E+03  d E =-.140237E-03
       N       E                     dE             d eps       ncg     rms          rms(c)
RMM:   1    -0.182946912480E+03   -0.25339E-05   -0.28949E-05   237   0.205E-02    0.158E-02
RMM:   2    -0.182946970362E+03   -0.57882E-04   -0.42303E-05   237   0.201E-02
  59 F= -.18294697E+03 E0= -.18297541E+03  d E =-.150574E-03
       N       E                     dE             d eps       ncg     rms          rms(c)
RMM:   1    -0.182946913267E+03   -0.78664E-06   -0.28940E-05   237   0.208E-02    0.176E-02
RMM:   2    -0.182946973876E+03   -0.60609E-04   -0.54178E-05   237   0.219E-02
  60 F= -.18294697E+03 E0= -.18297557E+03  d E =-.154088E-03
       N       E                     dE             d eps       ncg     rms          rms(c)
RMM:   1    -0.182946916354E+03   -0.30873E-05   -0.35720E-05   238   0.227E-02    0.177E-02
RMM:   2    -0.182946990614E+03   -0.74259E-04   -0.53272E-05   238   0.226E-02
  61 F= -.18294699E+03 E0= -.18297539E+03  d E =-.170826E-03
       N       E                     dE             d eps       ncg     rms          rms(c)
RMM:   1    -0.182946917812E+03   -0.14574E-05   -0.36437E-05   239   0.233E-02    0.196E-02
RMM:   2    -0.182946991907E+03   -0.74095E-04   -0.68135E-05   240   0.246E-02
  62 F= -.18294699E+03 E0= -.18297558E+03  d E =-.172119E-03
       N       E                     dE             d eps       ncg     rms          rms(c)
RMM:   1    -0.182946921272E+03   -0.34605E-05   -0.44564E-05   241   0.254E-02    0.200E-02
RMM:   2    -0.182947017483E+03   -0.96211E-04   -0.67716E-05   244   0.254E-02
  63 F= -.18294702E+03 E0= -.18297537E+03  d E =-.197695E-03
       N       E                     dE             d eps       ncg     rms          rms(c)
RMM:   1    -0.182946594852E+03    0.32642E-03   -0.92630E-02   457   0.557E-01    0.486E-02
RMM:   2    -0.182946871888E+03   -0.27704E-03   -0.24948E-03   536   0.116E-01    0.759E-02
RMM:   3    -0.182946799452E+03    0.72436E-04   -0.28495E-04   259   0.412E-02
  64 F= -.18294680E+03 E0= -.18297553E+03  d E =0.203359E-04
       N       E                     dE             d eps       ncg     rms          rms(c)
RMM:   1    -0.182946795825E+03    0.76063E-04   -0.75727E-05   237   0.298E-02    0.343E-02
RMM:   2    -0.182947141836E+03   -0.34601E-03   -0.17631E-04   254   0.402E-02    0.170E-01
RMM:   3    -0.182946834078E+03    0.30776E-03   -0.12617E-04   254   0.447E-02    0.174E-02
RMM:   4    -0.182946778640E+03    0.55438E-04   -0.31175E-05   245   0.167E-02
  65 F= -.18294678E+03 E0= -.18297557E+03  d E =0.411478E-04
