 vasp.5.4.1 24Jun15 (build Jan 06 2016 13:19:48) gamma-only                     
  
 executed on           IFC91_ompi date 2016.02.18  19:41:53
 running on    8 total cores
 distrk:  each k-point on    8 cores,    1 groups
 distr:  one band on NCORES_PER_BAND=   4 cores,    2 groups


--------------------------------------------------------------------------------------------------------


 INCAR:
 POTCAR:    PAW Pt                                
 POTCAR:    PAW Pd                                
 POTCAR:    PAW Pt                                
   VRHFIN =Pt: s1d9                                                             
   LEXCH  = 91                                                                  
   EATOM  =   730.0441 eV,   53.6567 Ry                                         
                                                                                
   TITEL  = PAW Pt                                                              
   LULTRA =        F    use ultrasoft PP ?                                      
   IUNSCR =        1    unscreen: 0-lin 1-nonlin 2-no                           
   RPACOR =    2.330    partial core radius                                     
   POMASS =  195.080; ZVAL   =   10.000    mass and valenz                      
   RCORE  =    2.500    outmost cutoff radius                                   
   RWIGS  =    2.750; RWIGS  =    1.455    wigner-seitz radius (au A)           
   ENMAX  =  230.277; ENMIN  =  172.708 eV                                      
   RCLOC  =    1.896    cutoff for local pot                                    
   LCOR   =        T    correct aug charges                                     
   LPAW   =        T    paw PP                                                  
   EAUG   =  358.966                                                            
   DEXC   =    -.016                                                            
   RMAX   =    3.038    core radius for proj-oper                               
   RAUG   =    1.300    factor for augmentation sphere                          
   RDEP   =    2.590    core radius for depl-charge                             
   QCUT   =   -4.114; QGAM   =    8.228    optimization parameters              
                                                                                
   Description                                                                  
     l     E      TYP  RCUT    TYP  RCUT                                        
     2   .000     23  2.500                                                     
     2   .000     23  2.500                                                     
     0   .000     23  2.500                                                     
     0   .000     23  2.500                                                     
     1  -.200     23  2.500                                                     
     1  1.500     23  2.500                                                     
     3   .000      7   .000                                                     
  local pseudopotential read in
  partial core-charges read in
  atomic valenz-charges read in
  non local Contribution for L=           2  read in
    real space projection operators read in
  non local Contribution for L=           2  read in
    real space projection operators read in
  non local Contribution for L=           0  read in
    real space projection operators read in
  non local Contribution for L=           0  read in
    real space projection operators read in
  non local Contribution for L=           1  read in
    real space projection operators read in
  non local Contribution for L=           1  read in
    real space projection operators read in
    PAW grid and wavefunctions read in
 
   number of l-projection  operators is LMAX  =           6
   number of lm-projection operators is LMMAX =          18
 
 POTCAR:    PAW Pd                                
   VRHFIN =Pd : s1 d9                                                           
   LEXCH  = 91                                                                  
   EATOM  =   810.7745 eV,   59.5902 Ry                                         
                                                                                
   TITEL  = PAW Pd                                                              
   LULTRA =        F    use ultrasoft PP ?                                      
   IUNSCR =        1    unscreen: 0-lin 1-nonlin 2-no                           
   RPACOR =    2.000    partial core radius                                     
   POMASS =  106.420; ZVAL   =   10.000    mass and valenz                      
   RCORE  =    2.400    outmost cutoff radius                                   
   RWIGS  =    2.710; RWIGS  =    1.434    wigner-seitz radius (au A)           
   ENMAX  =  250.918; ENMIN  =  188.188 eV                                      
   RCLOC  =    1.862    cutoff for local pot                                    
   LCOR   =        T    correct aug charges                                     
   LPAW   =        T    paw PP                                                  
   EAUG   =  416.230                                                            
   DEXC   =    -.044                                                            
   RMAX   =    2.911    core radius for proj-oper                               
   RAUG   =    1.300    factor for augmentation sphere                          
   RDEP   =    2.405    core radius for depl-charge                             
   QCUT   =   -4.294; QGAM   =    8.589    optimization parameters              
                                                                                
   Description                                                                  
     l     E      TYP  RCUT    TYP  RCUT                                        
     2   .000     23  2.400                                                     
     2   .000     23  2.400                                                     
     0   .000     23  2.400                                                     
     0   .000     23  2.400                                                     
     1  -.200     23  2.400                                                     
     1   .000     23  2.400                                                     
     3   .000      7   .000                                                     
  local pseudopotential read in
  partial core-charges read in
  atomic valenz-charges read in
  non local Contribution for L=           2  read in
    real space projection operators read in
  non local Contribution for L=           2  read in
    real space projection operators read in
  non local Contribution for L=           0  read in
    real space projection operators read in
  non local Contribution for L=           0  read in
    real space projection operators read in
  non local Contribution for L=           1  read in
    real space projection operators read in
  non local Contribution for L=           1  read in
    real space projection operators read in
    PAW grid and wavefunctions read in
 
   number of l-projection  operators is LMAX  =           6
   number of lm-projection operators is LMMAX =          18
 
 Optimization of the real space projectors (new method)

 maximal supplied QI-value         = 15.12
 optimisation between [QCUT,QGAM] = [  8.47, 16.93] = [ 20.07, 80.28] Ry 
 Optimized for a Real-space Cutoff    1.77 Angstroem

   l    n(q)    QCUT    max X(q) W(low)/X(q) W(high)/X(q)  e(spline) 
   2      8     8.466     3.641    0.49E-04    0.39E-05    0.40E-07
   2      8     8.466    46.630    0.33E-03    0.12E-03    0.54E-06
   0      9     8.466    13.886    0.23E-04    0.26E-05    0.52E-08
   0      9     8.466    57.975    0.13E-03    0.11E-03    0.74E-07
   1      8     8.466     7.456    0.74E-05    0.18E-04    0.29E-07
   1      8     8.466    10.270    0.67E-04    0.35E-04    0.82E-07
 Optimization of the real space projectors (new method)

 maximal supplied QI-value         = 15.68
 optimisation between [QCUT,QGAM] = [  8.47, 16.94] = [ 20.09, 80.35] Ry 
 Optimized for a Real-space Cutoff    1.57 Angstroem

   l    n(q)    QCUT    max X(q) W(low)/X(q) W(high)/X(q)  e(spline) 
   2      7     8.470     3.678    0.37E-04    0.99E-04    0.37E-07
   2      7     8.470    27.581    0.48E-03    0.11E-02    0.28E-06
   0      8     8.470    18.529    0.16E-04    0.51E-05    0.58E-08
   0      8     8.470    72.518    0.26E-03    0.26E-03    0.54E-07
   1      7     8.470     7.283    0.30E-04    0.76E-04    0.24E-07
   1      7     8.470     9.762    0.13E-03    0.27E-03    0.59E-07
  PAW Pt                                :
 energy of atom  1       EATOM= -730.0441
 kinetic energy error for atom=    0.0517 (will be added to EATOM!!)
  PAW Pd                                :
 energy of atom  2       EATOM= -810.7745
 kinetic energy error for atom=    0.0521 (will be added to EATOM!!)
 
 
 POSCAR: Pt Pd                                   
  positions in direct lattice
  velocities in cartesian coordinates
 exchange correlation table for  LEXCH =        7
   RHO(1)=    0.500       N(1)  =     2000
   RHO(2)=  100.500       N(2)  =     4000

 VTST: version 3.1, (03/28/14)

 CHAIN: initializing optimizer
 
 OPT: Using VASP Conjugate-Gradient optimizer
 CHAIN: Read ICHAIN            0
 
 POSCAR: Pt Pd                                   
  positions in direct lattice
  velocities in cartesian coordinates
 


--------------------------------------------------------------------------------------------------------


 ion  position               nearest neighbor table
   1  0.724  0.574  0.500-   9 2.65  11 2.69  19 2.69  38 2.70  15 2.71  23 2.71
   2  0.574  0.724  0.500-   5 2.65  21 2.69  13 2.69  38 2.70  15 2.71  23 2.71
   3  0.574  0.426  0.500-   6 2.67  35 2.67  36 2.68  38 2.68  18 2.69  26 2.69  10 2.70   9 2.70
                            22 2.91  14 2.91  19 2.91  11 2.91
   4  0.276  0.574  0.500-   7 2.65  20 2.69  12 2.69  37 2.70  16 2.71  24 2.71
   5  0.426  0.724  0.500-   2 2.65  13 2.69  21 2.69  37 2.70  24 2.71  16 2.71
   6  0.500  0.500  0.395-   3 2.67  38 2.67  37 2.67  36 2.67  33 2.70  32 2.70  31 2.70  34 2.70
                            20 2.91  22 2.91  21 2.91  19 2.91
   7  0.276  0.426  0.500-   4 2.65  20 2.69  12 2.69  36 2.70  17 2.71  25 2.71
   8  0.426  0.276  0.500-  10 2.65  14 2.69  22 2.69  36 2.70  25 2.71  17 2.71
   9  0.724  0.426  0.500-   1 2.65  19 2.69  11 2.69   3 2.70  18 2.71  26 2.71
  10  0.574  0.276  0.500-   8 2.65  22 2.69  14 2.69   3 2.70  18 2.71  26 2.71
  11  0.661  0.500  0.614-  30 2.69  27 2.69   1 2.69   9 2.69  18 2.69  15 2.69  38 2.91   3 2.91
                            35 2.91
  12  0.339  0.500  0.614-  29 2.69  28 2.69   4 2.69   7 2.69  17 2.69  16 2.69  36 2.91  37 2.91
                            35 2.91
  13  0.500  0.661  0.614-  27 2.69  28 2.69   5 2.69   2 2.69  16 2.69  15 2.69  38 2.91  37 2.91
                            35 2.91
  14  0.500  0.339  0.614-  30 2.69  29 2.69   8 2.69  10 2.69  17 2.69  18 2.69   3 2.91  36 2.91
                            35 2.91
  15  0.649  0.649  0.606-  27 2.65  13 2.69  11 2.69  38 2.69   1 2.71   2 2.71
  16  0.351  0.649  0.606-  28 2.65  12 2.69  13 2.69  37 2.69   5 2.71   4 2.71
  17  0.351  0.351  0.606-  29 2.65  12 2.69  14 2.69  36 2.69   8 2.71   7 2.71
  18  0.649  0.351  0.606-  30 2.65  14 2.69  11 2.69   3 2.69   9 2.71  10 2.71
  19  0.661  0.500  0.386-  34 2.69  31 2.69   9 2.69   1 2.69  26 2.69  23 2.69   3 2.91  38 2.91
                             6 2.91
  20  0.339  0.500  0.386-  33 2.69  32 2.69   4 2.69   7 2.69  25 2.69  24 2.69  36 2.91  37 2.91
                             6 2.91
  21  0.500  0.661  0.386-  31 2.69  32 2.69   5 2.69   2 2.69  24 2.69  23 2.69  38 2.91  37 2.91
                             6 2.91
  22  0.500  0.339  0.386-  34 2.69  33 2.69   8 2.69  10 2.69  25 2.69  26 2.69   3 2.91  36 2.91
                             6 2.91
  23  0.649  0.649  0.394-  31 2.65  21 2.69  19 2.69  38 2.69   1 2.71   2 2.71
  24  0.351  0.649  0.394-  32 2.65  20 2.69  21 2.69  37 2.69   5 2.71   4 2.71
  25  0.351  0.351  0.394-  33 2.65  20 2.69  22 2.69  36 2.69   8 2.71   7 2.71
  26  0.649  0.351  0.394-  34 2.65  22 2.69  19 2.69   3 2.69   9 2.71  10 2.71
  27  0.575  0.575  0.710-  15 2.65  13 2.69  11 2.69  35 2.70  30 2.71  28 2.71
  28  0.425  0.575  0.710-  16 2.65  12 2.69  13 2.69  35 2.70  27 2.71  29 2.71
  29  0.425  0.425  0.710-  17 2.65  12 2.69  14 2.69  35 2.70  30 2.71  28 2.71
  30  0.575  0.425  0.710-  18 2.65  14 2.69  11 2.69  35 2.70  27 2.71  29 2.71
  31  0.575  0.575  0.290-  23 2.65  21 2.69  19 2.69   6 2.70  34 2.71  32 2.71
  32  0.425  0.575  0.290-  24 2.65  20 2.69  21 2.69   6 2.70  31 2.71  33 2.71
  33  0.425  0.425  0.290-  25 2.65  20 2.69  22 2.69   6 2.70  34 2.71  32 2.71
  34  0.575  0.425  0.290-  26 2.65  22 2.69  19 2.69   6 2.70  31 2.71  33 2.71
  35  0.500  0.500  0.605-  37 2.67  36 2.67   3 2.67  38 2.67  28 2.70  30 2.70  29 2.70  27 2.70
                            12 2.91  14 2.91  13 2.91  11 2.91
  36  0.426  0.426  0.500-  35 2.67   6 2.67  37 2.68   3 2.68  25 2.69  17 2.69   7 2.70   8 2.70
                            20 2.91  12 2.91  22 2.91  14 2.91
  37  0.426  0.574  0.500-  35 2.67   6 2.67  38 2.68  36 2.68  24 2.69  16 2.69   4 2.70   5 2.70
                            20 2.91  12 2.91  13 2.91  21 2.91
  38  0.574  0.574  0.500-   6 2.67  35 2.67  37 2.68   3 2.68  23 2.69  15 2.69   2 2.70   1 2.70
                            21 2.91  13 2.91  19 2.91  11 2.91
 

IMPORTANT INFORMATION: All symmetrisations will be switched off!
NOSYMM: (Re-)initialisation of all symmetry stuff for point group C_1.

 
 
 KPOINTS: Automatic Mesh                          

Automatic generation of k-mesh.
Space group operators:
 irot       det(A)        alpha          n_x          n_y          n_z        tau_x        tau_y        tau_z
    1     1.000000     0.000000     1.000000     0.000000     0.000000     0.000000     0.000000     0.000000
 
 Subroutine IBZKPT returns following result:
 ===========================================
 
 Found      1 irreducible k-points:
 
 Following reciprocal coordinates:
            Coordinates               Weight
  0.000000  0.000000  0.000000      1.000000
 
 Following cartesian coordinates:
            Coordinates               Weight
  0.000000  0.000000  0.000000      1.000000
 


--------------------------------------------------------------------------------------------------------




 Dimension of arrays:
   k-points           NKPTS =      1   k-points in BZ     NKDIM =      1   number of bands    NBANDS=    228
   number of dos      NEDOS =    301   number of ions     NIONS =     38
   non local maximal  LDIM  =      6   non local SUM 2l+1 LMDIM =     18
   total plane-waves  NPLWV = 512000
   max r-space proj   IRMAX =   2087   max aug-charges    IRDMAX=   5516
   dimension x,y,z NGX =    80 NGY =   80 NGZ =   80
   dimension x,y,z NGXF=   160 NGYF=  160 NGZF=  160
   support grid    NGXF=   160 NGYF=  160 NGZF=  160
   ions per type =              32   6
 NGX,Y,Z   is equivalent  to a cutoff of   7.39,  7.39,  7.39 a.u.
 NGXF,Y,Z  is equivalent  to a cutoff of  14.78, 14.78, 14.78 a.u.


 I would recommend the setting:
   dimension x,y,z NGX =    73 NGY =   73 NGZ =   73
 SYSTEM =  Pt cube particle                        
 POSCAR =  Pt Pd                                   

 Startparameter for this run:
   NWRITE =      2    write-flag & timer
   PREC   = normal    normal or accurate (medium, high low for compatibility)
   ISTART =      0    job   : 0-new  1-cont  2-samecut
   ICHARG =      2    charge: 1-file 2-atom 10-const
   ISPIN  =      1    spin polarized calculation?
   LNONCOLLINEAR =      F non collinear calculations
   LSORBIT =      F    spin-orbit coupling
   INIWAV =      1    electr: 0-lowe 1-rand  2-diag
   LASPH  =      F    aspherical Exc in radial PAW
   METAGGA=      F    non-selfconsistent MetaGGA calc.

 Electronic Relaxation 1
   ENCUT  =  274.0 eV  20.14 Ry    4.49 a.u.  24.29 24.29 24.29*2*pi/ulx,y,z
   ENINI  =  274.0     initial cutoff
   ENAUG  =  416.2 eV  augmentation charge cutoff
   NELM   =     60;   NELMIN=  2; NELMDL=-12     # of ELM steps 
   EDIFF  = 0.1E-03   stopping-criterion for ELM
   LREAL  =      T    real-space projection
   NLSPLINE    = F    spline interpolate recip. space projectors
   LCOMPAT=      F    compatible to vasp.4.4
   GGA_COMPAT  = T    GGA compatible to vasp.4.4-vasp.4.6
   LMAXPAW     = -100 max onsite density
   LMAXMIX     =    2 max onsite mixed and CHGCAR
   VOSKOWN=      0    Vosko Wilk Nusair interpolation
   ROPT   =   -0.00050  -0.00050
 Ionic relaxation
   EDIFFG = -.5E-02   stopping-criterion for IOM
   NSW    =    200    number of steps for IOM
   NBLOCK =      1;   KBLOCK =    200    inner block; outer block 
   IBRION =      2    ionic relax: 0-MD 1-quasi-New 2-CG
   NFREE  =      1    steps in history (QN), initial steepest desc. (CG)
   ISIF   =      0    stress and relaxation
   IWAVPR =     11    prediction:  0-non 1-charg 2-wave 3-comb
   ISYM   =      0    0-nonsym 1-usesym 2-fastsym
   LCORR  =      T    Harris-Foulkes like correction to forces

   POTIM  = 0.0500    time-step for ionic-motion
   TEIN   =    0.0    initial temperature
   TEBEG  =    0.0;   TEEND  =   0.0 temperature during run
   SMASS  =  -3.00    Nose mass-parameter (am)
   estimated Nose-frequenzy (Omega)   =  0.10E-29 period in steps =****** mass=  -0.740E-26a.u.
   SCALEE = 1.0000    scale energy and forces
   NPACO  =    256;   APACO  = 16.0  distance and # of slots for P.C.
   PSTRESS=    0.0 pullay stress

  Mass of Ions in am
   POMASS = 195.08106.42
  Ionic Valenz
   ZVAL   =  10.00 10.00
  Atomic Wigner-Seitz radii
   RWIGS  =  -1.00 -1.00
  virtual crystal weights 
   VCA    =   1.00  1.00
   NELECT =     380.0000    total number of electrons
   NUPDOWN=      -1.0000    fix difference up-down

 DOS related values:
   EMIN   =  10.00;   EMAX   =-10.00  energy-range for DOS
   EFERMI =   0.00
   ISMEAR =     1;   SIGMA  =   0.20  broadening in eV -4-tet -1-fermi 0-gaus

 Electronic relaxation 2 (details)
   IALGO  =     48    algorithm
   LDIAG  =      T    sub-space diagonalisation (order eigenvalues)
   LSUBROT=      F    optimize rotation matrix (better conditioning)
   TURBO    =      0    0=normal 1=particle mesh
   IRESTART =      0    0=no restart 2=restart with 2 vectors
   NREBOOT  =      0    no. of reboots
   NMIN     =      0    reboot dimension
   EREF     =   0.00    reference energy to select bands
   IMIX   =      4    mixing-type and parameters
     AMIX     =   0.40;   BMIX     =  1.00
     AMIX_MAG =   1.60;   BMIX_MAG =  1.00
     AMIN     =   0.10
     WC   =   100.;   INIMIX=   1;  MIXPRE=   1;  MAXMIX= -45

 Intra band minimization:
   WEIMIN = 0.0010     energy-eigenvalue tresh-hold
   EBREAK =  0.11E-06  absolut break condition
   DEPER  =   0.30     relativ break condition  

   TIME   =   0.40     timestep for ELM

  volume/ion in A,a.u.               =     153.47      1035.69
  Fermi-wavevector in a.u.,A,eV,Ry     =   0.658765  1.244884  5.904529  0.433971
  Thomas-Fermi vector in A             =   1.730689
 
 Write flags
   LWAVE  =      F    write WAVECAR
   LCHARG =      F    write CHGCAR
   LVTOT  =      F    write LOCPOT, total local potential
   LVHAR  =      F    write LOCPOT, Hartree potential only
   LELF   =      F    write electronic localiz. function (ELF)
   LORBIT =      0    0 simple, 1 ext, 2 COOP (PROOUT)


 Dipole corrections
   LMONO  =      F    monopole corrections only (constant potential shift)
   LDIPOL =      F    correct potential (dipole corrections)
   IDIPOL =      0    1-x, 2-y, 3-z, 4-all directions 
   EPSILON=  1.0000000 bulk dielectric constant

 Exchange correlation treatment:
   GGA     =    --    GGA type
   LEXCH   =     7    internal setting for exchange type
   VOSKOWN=      0    Vosko Wilk Nusair interpolation
   LHFCALC =     F    Hartree Fock is set to
   LHFONE  =     F    Hartree Fock one center treatment
   AEXX    =    0.0000 exact exchange contribution

 Linear response parameters
   LEPSILON=     F    determine dielectric tensor
   LRPA    =     F    only Hartree local field effects (RPA)
   LNABLA  =     F    use nabla operator in PAW spheres
   LVEL    =     F    velocity operator in full k-point grid
   LINTERFAST=   F  fast interpolation
   KINTER  =     0    interpolate to denser k-point grid
   CSHIFT  =0.1000    complex shift for real part using Kramers Kronig
   OMEGAMAX=  -1.0    maximum frequency
   DEG_THRESHOLD= 0.2000000E-02 threshold for treating states as degnerate
   RTIME   =    0.100 relaxation time in fs

 Orbital magnetization related:
   ORBITALMAG=     F  switch on orbital magnetization
   LCHIMAG   =     F  perturbation theory with respect to B field
   DQ        =  0.001000  dq finite difference perturbation B field



--------------------------------------------------------------------------------------------------------


 conjugate gradient relaxation of ions
   using selective dynamics as specified on POSCAR
 charge density and potential will be updated during run
 non-spin polarized calculation
 RMM-DIIS sequential band-by-band
 perform sub-space diagonalisation
    before iterative eigenvector-optimisation
 modified Broyden-mixing scheme, WC =      100.0
 initial mixing is a Kerker type mixing with AMIX =  0.4000 and BMIX =      1.0000
 Hartree-type preconditioning will be used
 using additional bands           38
 real space projection scheme for non local part
 use partial core corrections
 calculate Harris-corrections to forces 
   (improved forces if not selfconsistent)
 use gradient corrections 
 use of overlap-Matrix (Vanderbilt PP)
 Methfessel and Paxton  Order N= 1 SIGMA  =   0.20


--------------------------------------------------------------------------------------------------------


  energy-cutoff  :      274.00
  volume of cell :     5832.00
      direct lattice vectors                 reciprocal lattice vectors
    18.000000000  0.000000000  0.000000000     0.055555556  0.000000000  0.000000000
     0.000000000 18.000000000  0.000000000     0.000000000  0.055555556  0.000000000
     0.000000000  0.000000000 18.000000000     0.000000000  0.000000000  0.055555556

  length of vectors
    18.000000000 18.000000000 18.000000000     0.055555556  0.055555556  0.055555556


 
 k-points in units of 2pi/SCALE and weight: Automatic Mesh                          
   0.00000000  0.00000000  0.00000000       1.000
 
 k-points in reciprocal lattice and weights: Automatic Mesh                          
   0.00000000  0.00000000  0.00000000       1.000
 
 position of ions in fractional coordinates (direct lattice) 
   0.72415987  0.57367709  0.49999884
   0.57367748  0.72416476  0.49999896
   0.57433976  0.42564820  0.49999771
   0.27584718  0.57366508  0.50000102
   0.42633392  0.72415229  0.50000050
   0.49999163  0.49999846  0.39510135
   0.27584506  0.42633293  0.50000053
   0.42633278  0.27584919  0.49999961
   0.72415965  0.42632488  0.49999934
   0.57367347  0.27583777  0.49999958
   0.66139785  0.50000291  0.61403403
   0.33859673  0.49999821  0.61404334
   0.50000485  0.66140186  0.61404044
   0.49999876  0.33859700  0.61404026
   0.64886196  0.64886231  0.60622248
   0.35115009  0.64885073  0.60622329
   0.35114542  0.35114654  0.60622383
   0.64885517  0.35114461  0.60622041
   0.66139838  0.49999881  0.38596471
   0.33859854  0.49999905  0.38596026
   0.50000385  0.66140334  0.38595872
   0.50000369  0.33859956  0.38596150
   0.64886010  0.64885942  0.39377423
   0.35115184  0.64884871  0.39377816
   0.35115095  0.35115082  0.39377660
   0.64885984  0.35114035  0.39377625
   0.57516716  0.57516805  0.71035430
   0.42483370  0.57516629  0.71035524
   0.42482849  0.42483027  0.71035654
   0.57516215  0.42483732  0.71034915
   0.57516540  0.57516346  0.28964734
   0.42483436  0.57516557  0.28964991
   0.42483466  0.42483341  0.28964981
   0.57516653  0.42483369  0.28964740
   0.49998814  0.49999905  0.60489762
   0.42563785  0.42564770  0.49999960
   0.42564235  0.57434859  0.49999975
   0.57434040  0.57435174  0.49999737
 
 position of ions in cartesian coordinates  (Angst):
  13.03487766 10.32618765  8.99997908
  10.32619467 13.03496573  8.99998135
  10.33811572  7.66166758  8.99995875
   4.96524921 10.32597143  9.00001828
   7.67401057 13.03474127  9.00000904
   8.99984938  8.99997234  7.11182422
   4.96521100  7.67399282  9.00000955
   7.67399007  4.96528539  8.99999302
  13.03487364  7.67384778  8.99998809
  10.32612246  4.96507980  8.99999244
  11.90516130  9.00005235 11.05261245
   6.09474114  8.99996781 11.05278015
   9.00008728 11.90523349 11.05272800
   8.99997776  6.09474598 11.05272477
  11.67951528 11.67952149 10.91200463
   6.32070158 11.67931310 10.91201915
   6.32061748  6.32063779 10.91202887
  11.67939303  6.32060299 10.91196738
  11.90517091  8.99997863  6.94736487
   6.09477373  8.99998286  6.94728464
   9.00006924 11.90526020  6.94725697
   9.00006641  6.09479205  6.94730706
  11.67948172 11.67946948  7.08793619
   6.32073317 11.67927671  7.08800695
   6.32071714  6.32071476  7.08797889
  11.67947717  6.32052634  7.08797252
  10.35300881 10.35302496 12.78637740
   7.64700657 10.35299316 12.78639435
   7.64691281  7.64694477 12.78641772
  10.35291876  7.64707177 12.78628477
  10.35297711 10.35294233  5.21365204
   7.64701854 10.35298024  5.21369837
   7.64702390  7.64700130  5.21369664
  10.35299751  7.64700639  5.21365327
   8.99978657  8.99998292 10.88815723
   7.66148132  7.66165855  8.99999276
   7.66156223 10.33827453  8.99999543
  10.33812715 10.33833127  8.99995273
 


--------------------------------------------------------------------------------------------------------


 use parallel FFT for wavefunctions z direction half grid
 k-point  1 :   0.0000 0.0000 0.0000  plane waves:   30123

 maximum and minimum number of plane-waves per node :      7537     7520

 maximum number of plane-waves:     30123
 maximum index in each direction: 
   IXMAX=   24   IYMAX=   24   IZMAX=   24
   IXMIN=  -24   IYMIN=  -24   IZMIN=    0

 WARNING: aliasing errors must be expected set NGX to  98 to avoid them
 WARNING: aliasing errors must be expected set NGY to  98 to avoid them
 WARNING: aliasing errors must be expected set NGZ to  98 to avoid them
 aliasing errors are usually negligible using standard VASP settings
 and one can safely disregard these warnings

 real space projection operators:
  total allocation   :      10027.41 KBytes
  max/ min on nodes  :       2516.91       2488.50


 parallel 3D FFT for wavefunctions:
    minimum data exchange during FFTs selected (reduces bandwidth)
 parallel 3D FFT for charge:
    minimum data exchange during FFTs selected (reduces bandwidth)


 total amount of memory used by VASP on root node   101250. kBytes
========================================================================

   base      :      30000. kBytes
   nonlr-proj:       3078. kBytes
   fftplans  :      20116. kBytes
   grid      :      34073. kBytes
   one-center:         77. kBytes
   wavefun   :      13906. kBytes
 
     INWAV:  cpu time    0.0000: real time    0.0002
 Broyden mixing: mesh for mixing (old mesh)
   NGX = 49   NGY = 49   NGZ = 49
  (NGX  =160   NGY  =160   NGZ  =160)
  gives a total of 117649 points

 initial charge density was supplied:
 charge density of overlapping atoms calculated
 number of electron     380.0000000 magnetization 
 keeping initial charge density in first step


--------------------------------------------------------------------------------------------------------


 Maximum index for non-local projection operator          510
 Maximum index for augmentation-charges          685 (set IRDMAX)


--------------------------------------------------------------------------------------------------------


 First call to EWALD:  gamma=   0.098
 Maximum number of real-space cells 3x 3x 3
 Maximum number of reciprocal cells 3x 3x 3

 FEWALD executed in parallel
    FEWALD:  cpu time    0.0070: real time    0.0072


----------------------------------------- Iteration    1(   1)  ---------------------------------------


    POTLOK:  cpu time    2.3386: real time    2.3497
    SETDIJ:  cpu time    0.0240: real time    0.0233
    EDDIAG:  cpu time    4.1424: real time    4.1578
  RMM-DIIS:  cpu time    9.4596: real time    9.4935
    ORTHCH:  cpu time    0.3130: real time    0.3161
       DOS:  cpu time    0.0010: real time    0.0010
    --------------------------------------------
      LOOP:  cpu time   16.2825: real time   16.3469

 eigenvalue-minimisations  :   228
 total energy-change (2. order) : 0.4739349E+04  (-0.6957043E+04)
 number of electron     380.0000000 magnetization 
 augmentation part      380.0000000 magnetization 

 Free energy of the ion-electron system (eV)
  ---------------------------------------------------
  alpha Z        PSCENC =       355.51581029
  Ewald energy   TEWEN  =     67873.47708066
  -Hartree energ DENC   =    -95272.93594921
  -exchange      EXHF   =         0.00000000
  -V(xc)+E(xc)   XCENC  =      -102.25542243
  PAW double counting   =     22415.49745108   -21132.28767422
  entropy T*S    EENTRO =        -0.08488851
  eigenvalues    EBANDS =      2378.33281683
  atomic energy  EATOM  =     28224.09016519
  Solvation  Ediel_sol  =         0.00000000
  ---------------------------------------------------
  free energy    TOTEN  =      4739.34938967 eV

  energy without entropy =     4739.43427818  energy(sigma->0) =     4739.37768584


--------------------------------------------------------------------------------------------------------




----------------------------------------- Iteration    1(   2)  ---------------------------------------


    EDDIAG:  cpu time    4.1244: real time    4.1377
  RMM-DIIS:  cpu time    9.3956: real time    9.4512
    ORTHCH:  cpu time    0.3170: real time    0.3196
       DOS:  cpu time    0.0010: real time    0.0011
    --------------------------------------------
      LOOP:  cpu time   13.8399: real time   13.9136

 eigenvalue-minimisations  :   228
 total energy-change (2. order) :-0.2040260E+04  (-0.2245412E+04)
 number of electron     380.0000000 magnetization 
 augmentation part      380.0000000 magnetization 

 Free energy of the ion-electron system (eV)
  ---------------------------------------------------
  alpha Z        PSCENC =       355.51581029
  Ewald energy   TEWEN  =     67873.47708066
  -Hartree energ DENC   =    -95272.93594921
  -exchange      EXHF   =         0.00000000
  -V(xc)+E(xc)   XCENC  =      -102.25542243
  PAW double counting   =     22415.49745108   -21132.28767422
  entropy T*S    EENTRO =         0.14367557
  eigenvalues    EBANDS =       337.84475004
  atomic energy  EATOM  =     28224.09016519
  Solvation  Ediel_sol  =         0.00000000
  ---------------------------------------------------
  free energy    TOTEN  =      2699.08988696 eV

  energy without entropy =     2698.94621139  energy(sigma->0) =     2699.04199510


--------------------------------------------------------------------------------------------------------




----------------------------------------- Iteration    1(   3)  ---------------------------------------


    EDDIAG:  cpu time    4.1174: real time    4.1306
  RMM-DIIS:  cpu time    9.4566: real time    9.5027
    ORTHCH:  cpu time    0.3180: real time    0.3182
       DOS:  cpu time    0.0010: real time    0.0012
    --------------------------------------------
      LOOP:  cpu time   13.8959: real time   13.9583

 eigenvalue-minimisations  :   228
 total energy-change (2. order) :-0.9345031E+03  (-0.1212422E+04)
 number of electron     380.0000000 magnetization 
 augmentation part      380.0000000 magnetization 

 Free energy of the ion-electron system (eV)
  ---------------------------------------------------
  alpha Z        PSCENC =       355.51581029
  Ewald energy   TEWEN  =     67873.47708066
  -Hartree energ DENC   =    -95272.93594921
  -exchange      EXHF   =         0.00000000
  -V(xc)+E(xc)   XCENC  =      -102.25542243
  PAW double counting   =     22415.49745108   -21132.28767422
  entropy T*S    EENTRO =        -0.07431592
  eigenvalues    EBANDS =      -596.44033606
  atomic energy  EATOM  =     28224.09016519
  Solvation  Ediel_sol  =         0.00000000
  ---------------------------------------------------
  free energy    TOTEN  =      1764.58680936 eV

  energy without entropy =     1764.66112529  energy(sigma->0) =     1764.61158134


--------------------------------------------------------------------------------------------------------




----------------------------------------- Iteration    1(   4)  ---------------------------------------


    EDDIAG:  cpu time    4.1094: real time    4.1241
  RMM-DIIS:  cpu time    9.4126: real time    9.4547
    ORTHCH:  cpu time    0.3160: real time    0.3163
       DOS:  cpu time    0.0010: real time    0.0013
    --------------------------------------------
      LOOP:  cpu time   13.8419: real time   13.9010

 eigenvalue-minimisations  :   228
 total energy-change (2. order) :-0.7274280E+03  (-0.7797616E+03)
 number of electron     380.0000000 magnetization 
 augmentation part      380.0000000 magnetization 

 Free energy of the ion-electron system (eV)
  ---------------------------------------------------
  alpha Z        PSCENC =       355.51581029
  Ewald energy   TEWEN  =     67873.47708066
  -Hartree energ DENC   =    -95272.93594921
  -exchange      EXHF   =         0.00000000
  -V(xc)+E(xc)   XCENC  =      -102.25542243
  PAW double counting   =     22415.49745108   -21132.28767422
  entropy T*S    EENTRO =         0.01978355
  eigenvalues    EBANDS =     -1323.96240961
  atomic energy  EATOM  =     28224.09016519
  Solvation  Ediel_sol  =         0.00000000
  ---------------------------------------------------
  free energy    TOTEN  =      1037.15883529 eV

  energy without entropy =     1037.13905174  energy(sigma->0) =     1037.15224077


--------------------------------------------------------------------------------------------------------




----------------------------------------- Iteration    1(   5)  ---------------------------------------


    EDDIAG:  cpu time    4.1074: real time    4.1259
  RMM-DIIS:  cpu time    9.4556: real time    9.4972
    ORTHCH:  cpu time    0.3140: real time    0.3144
       DOS:  cpu time    0.0020: real time    0.0013
    --------------------------------------------
      LOOP:  cpu time   13.8839: real time   13.9444

 eigenvalue-minimisations  :   228
 total energy-change (2. order) :-0.4493365E+03  (-0.4215150E+03)
 number of electron     380.0000000 magnetization 
 augmentation part      380.0000000 magnetization 

 Free energy of the ion-electron system (eV)
  ---------------------------------------------------
  alpha Z        PSCENC =       355.51581029
  Ewald energy   TEWEN  =     67873.47708066
  -Hartree energ DENC   =    -95272.93594921
  -exchange      EXHF   =         0.00000000
  -V(xc)+E(xc)   XCENC  =      -102.25542243
  PAW double counting   =     22415.49745108   -21132.28767422
  entropy T*S    EENTRO =         0.05717263
  eigenvalues    EBANDS =     -1773.33627226
  atomic energy  EATOM  =     28224.09016519
  Solvation  Ediel_sol  =         0.00000000
  ---------------------------------------------------
  free energy    TOTEN  =       587.82236172 eV

  energy without entropy =      587.76518909  energy(sigma->0) =      587.80330418


--------------------------------------------------------------------------------------------------------




----------------------------------------- Iteration    1(   6)  ---------------------------------------


    EDDIAG:  cpu time    4.2004: real time    4.2130
  RMM-DIIS:  cpu time    9.4556: real time    9.4928
    ORTHCH:  cpu time    0.3160: real time    0.3159
       DOS:  cpu time    0.0020: real time    0.0014
    --------------------------------------------
      LOOP:  cpu time   13.9769: real time   14.0281

 eigenvalue-minimisations  :   228
 total energy-change (2. order) :-0.3144849E+03  (-0.2684106E+03)
 number of electron     380.0000000 magnetization 
 augmentation part      380.0000000 magnetization 

 Free energy of the ion-electron system (eV)
  ---------------------------------------------------
  alpha Z        PSCENC =       355.51581029
  Ewald energy   TEWEN  =     67873.47708066
  -Hartree energ DENC   =    -95272.93594921
  -exchange      EXHF   =         0.00000000
  -V(xc)+E(xc)   XCENC  =      -102.25542243
  PAW double counting   =     22415.49745108   -21132.28767422
  entropy T*S    EENTRO =         0.17695407
  eigenvalues    EBANDS =     -2087.94093841
  atomic energy  EATOM  =     28224.09016519
  Solvation  Ediel_sol  =         0.00000000
  ---------------------------------------------------
  free energy    TOTEN  =       273.33747701 eV

  energy without entropy =      273.16052294  energy(sigma->0) =      273.27849232


--------------------------------------------------------------------------------------------------------




----------------------------------------- Iteration    1(   7)  ---------------------------------------


    EDDIAG:  cpu time    4.1074: real time    4.1242
  RMM-DIIS:  cpu time    9.4356: real time    9.4908
    ORTHCH:  cpu time    0.3170: real time    0.3180
       DOS:  cpu time    0.0010: real time    0.0012
    --------------------------------------------
      LOOP:  cpu time   13.8639: real time   13.9396

 eigenvalue-minimisations  :   228
 total energy-change (2. order) :-0.1685252E+03  (-0.1479138E+03)
 number of electron     380.0000000 magnetization 
 augmentation part      380.0000000 magnetization 

 Free energy of the ion-electron system (eV)
  ---------------------------------------------------
  alpha Z        PSCENC =       355.51581029
  Ewald energy   TEWEN  =     67873.47708066
  -Hartree energ DENC   =    -95272.93594921
  -exchange      EXHF   =         0.00000000
  -V(xc)+E(xc)   XCENC  =      -102.25542243
  PAW double counting   =     22415.49745108   -21132.28767422
  entropy T*S    EENTRO =         0.00363910
  eigenvalues    EBANDS =     -2256.29278813
  atomic energy  EATOM  =     28224.09016519
  Solvation  Ediel_sol  =         0.00000000
  ---------------------------------------------------
  free energy    TOTEN  =       104.81231233 eV

  energy without entropy =      104.80867322  energy(sigma->0) =      104.81109929


--------------------------------------------------------------------------------------------------------




----------------------------------------- Iteration    1(   8)  ---------------------------------------


    EDDIAG:  cpu time    4.1064: real time    4.1234
  RMM-DIIS:  cpu time    9.4336: real time    9.4686
    ORTHCH:  cpu time    0.3130: real time    0.3132
       DOS:  cpu time    0.0020: real time    0.0013
    --------------------------------------------
      LOOP:  cpu time   13.8589: real time   13.9132

 eigenvalue-minimisations  :   228
 total energy-change (2. order) :-0.1251589E+03  (-0.9763815E+02)
 number of electron     380.0000000 magnetization 
 augmentation part      380.0000000 magnetization 

 Free energy of the ion-electron system (eV)
  ---------------------------------------------------
  alpha Z        PSCENC =       355.51581029
  Ewald energy   TEWEN  =     67873.47708066
  -Hartree energ DENC   =    -95272.93594921
  -exchange      EXHF   =         0.00000000
  -V(xc)+E(xc)   XCENC  =      -102.25542243
  PAW double counting   =     22415.49745108   -21132.28767422
  entropy T*S    EENTRO =         0.07999624
  eigenvalues    EBANDS =     -2381.52807380
  atomic energy  EATOM  =     28224.09016519
  Solvation  Ediel_sol  =         0.00000000
  ---------------------------------------------------
  free energy    TOTEN  =       -20.34661621 eV

  energy without entropy =      -20.42661245  energy(sigma->0) =      -20.37328162


--------------------------------------------------------------------------------------------------------




----------------------------------------- Iteration    1(   9)  ---------------------------------------


    EDDIAG:  cpu time    4.1234: real time    4.1387
  RMM-DIIS:  cpu time   23.9964: real time   24.1097
    ORTHCH:  cpu time    0.3070: real time    0.3077
       DOS:  cpu time    0.0020: real time    0.0013
    --------------------------------------------
      LOOP:  cpu time   28.4347: real time   28.5641

 eigenvalue-minimisations  :   624
 total energy-change (2. order) :-0.9998410E+02  (-0.9218149E+02)
 number of electron     380.0000000 magnetization 
 augmentation part      380.0000000 magnetization 

 Free energy of the ion-electron system (eV)
  ---------------------------------------------------
  alpha Z        PSCENC =       355.51581029
  Ewald energy   TEWEN  =     67873.47708066
  -Hartree energ DENC   =    -95272.93594921
  -exchange      EXHF   =         0.00000000
  -V(xc)+E(xc)   XCENC  =      -102.25542243
  PAW double counting   =     22415.49745108   -21132.28767422
  entropy T*S    EENTRO =        -0.04630858
  eigenvalues    EBANDS =     -2481.38586540
  atomic energy  EATOM  =     28224.09016519
  Solvation  Ediel_sol  =         0.00000000
  ---------------------------------------------------
  free energy    TOTEN  =      -120.33071264 eV

  energy without entropy =     -120.28440405  energy(sigma->0) =     -120.31527644


--------------------------------------------------------------------------------------------------------




----------------------------------------- Iteration    1(  10)  ---------------------------------------


    EDDIAG:  cpu time    4.1204: real time    4.1348
  RMM-DIIS:  cpu time   27.2589: real time   27.3997
    ORTHCH:  cpu time    0.3090: real time    0.3095
       DOS:  cpu time    0.0010: real time    0.0012
    --------------------------------------------
      LOOP:  cpu time   31.6912: real time   31.8498

 eigenvalue-minimisations  :   718
 total energy-change (2. order) :-0.4063462E+02  (-0.3685062E+02)
 number of electron     380.0000000 magnetization 
 augmentation part      380.0000000 magnetization 

 Free energy of the ion-electron system (eV)
  ---------------------------------------------------
  alpha Z        PSCENC =       355.51581029
  Ewald energy   TEWEN  =     67873.47708066
  -Hartree energ DENC   =    -95272.93594921
  -exchange      EXHF   =         0.00000000
  -V(xc)+E(xc)   XCENC  =      -102.25542243
  PAW double counting   =     22415.49745108   -21132.28767422
  entropy T*S    EENTRO =         0.02537141
  eigenvalues    EBANDS =     -2522.09216488
  atomic energy  EATOM  =     28224.09016519
  Solvation  Ediel_sol  =         0.00000000
  ---------------------------------------------------
  free energy    TOTEN  =      -160.96533212 eV

  energy without entropy =     -160.99070353  energy(sigma->0) =     -160.97378926


--------------------------------------------------------------------------------------------------------




----------------------------------------- Iteration    1(  11)  ---------------------------------------


    EDDIAG:  cpu time    4.1234: real time    4.1358
  RMM-DIIS:  cpu time   28.4387: real time   28.5724
    ORTHCH:  cpu time    0.3180: real time    0.3182
       DOS:  cpu time    0.0010: real time    0.0012
    --------------------------------------------
      LOOP:  cpu time   32.8840: real time   33.0329

 eigenvalue-minimisations  :   745
 total energy-change (2. order) :-0.1958815E+02  (-0.1631563E+02)
 number of electron     380.0000000 magnetization 
 augmentation part      380.0000000 magnetization 

 Free energy of the ion-electron system (eV)
  ---------------------------------------------------
  alpha Z        PSCENC =       355.51581029
  Ewald energy   TEWEN  =     67873.47708066
  -Hartree energ DENC   =    -95272.93594921
  -exchange      EXHF   =         0.00000000
  -V(xc)+E(xc)   XCENC  =      -102.25542243
  PAW double counting   =     22415.49745108   -21132.28767422
  entropy T*S    EENTRO =        -0.14601829
  eigenvalues    EBANDS =     -2541.50892159
  atomic energy  EATOM  =     28224.09016519
  Solvation  Ediel_sol  =         0.00000000
  ---------------------------------------------------
  free energy    TOTEN  =      -180.55347853 eV

  energy without entropy =     -180.40746024  energy(sigma->0) =     -180.50480576


--------------------------------------------------------------------------------------------------------




----------------------------------------- Iteration    1(  12)  ---------------------------------------


    EDDIAG:  cpu time    4.0934: real time    4.1108
  RMM-DIIS:  cpu time   28.3617: real time   28.5038
    ORTHCH:  cpu time    0.3200: real time    0.3200
       DOS:  cpu time    0.0020: real time    0.0018
    CHARGE:  cpu time    2.1937: real time    2.2029
    MIXING:  cpu time    0.0570: real time    0.0562
    --------------------------------------------
      LOOP:  cpu time   35.0307: real time   35.2014

 eigenvalue-minimisations  :   741
 total energy-change (2. order) :-0.7528187E+01  (-0.6872846E+01)
 number of electron     379.9999165 magnetization 
 augmentation part      119.5809729 magnetization 

 Broyden mixing:
  rms(total) = 0.21504E+01    rms(broyden)= 0.21482E+01
  rms(prec ) = 0.24949E+01
  weight for this iteration     100.00

 Free energy of the ion-electron system (eV)
  ---------------------------------------------------
  alpha Z        PSCENC =       355.51581029
  Ewald energy   TEWEN  =     67873.47708066
  -Hartree energ DENC   =    -95272.93594921
  -exchange      EXHF   =         0.00000000
  -V(xc)+E(xc)   XCENC  =      -102.25542243
  PAW double counting   =     22415.49745108   -21132.28767422
  entropy T*S    EENTRO =        -0.03559190
  eigenvalues    EBANDS =     -2549.14753545
  atomic energy  EATOM  =     28224.09016519
  Solvation  Ediel_sol  =         0.00000000
  ---------------------------------------------------
  free energy    TOTEN  =      -188.08166600 eV

  energy without entropy =     -188.04607410  energy(sigma->0) =     -188.06980203


--------------------------------------------------------------------------------------------------------




----------------------------------------- Iteration    1(  13)  ---------------------------------------


    POTLOK:  cpu time    2.1977: real time    2.2107
    SETDIJ:  cpu time    0.0250: real time    0.0254
    EDDIAG:  cpu time    4.2004: real time    4.2148
  RMM-DIIS:  cpu time   20.4099: real time   20.5005
    ORTHCH:  cpu time    0.3080: real time    0.3088
       DOS:  cpu time    0.0010: real time    0.0016
    CHARGE:  cpu time    2.1907: real time    2.1999
    MIXING:  cpu time    0.0540: real time    0.0538
    --------------------------------------------
      LOOP:  cpu time   29.3885: real time   29.5196

 eigenvalue-minimisations  :   533
 total energy-change (2. order) : 0.3771376E+01  (-0.1034985E+02)
 number of electron     379.9999112 magnetization 
 augmentation part      122.8584051 magnetization 

 Broyden mixing:
  rms(total) = 0.17092E+01    rms(broyden)= 0.17069E+01
  rms(prec ) = 0.21309E+01
  weight for this iteration     100.00

 eigenvalues of (default mixing * dielectric matrix)
  average eigenvalue GAMMA=   0.6468
  0.6468

 Free energy of the ion-electron system (eV)
  ---------------------------------------------------
  alpha Z        PSCENC =       355.51581029
  Ewald energy   TEWEN  =     67873.47708066
  -Hartree energ DENC   =    -95072.37241674
  -exchange      EXHF   =         0.00000000
  -V(xc)+E(xc)   XCENC  =      -111.58598206
  PAW double counting   =     22362.75824671   -21122.08300325
  entropy T*S    EENTRO =         0.05179576
  eigenvalues    EBANDS =     -2694.16198662
  atomic energy  EATOM  =     28224.09016519
  Solvation  Ediel_sol  =         0.00000000
  ---------------------------------------------------
  free energy    TOTEN  =      -184.31029006 eV

  energy without entropy =     -184.36208583  energy(sigma->0) =     -184.32755532


--------------------------------------------------------------------------------------------------------




----------------------------------------- Iteration    1(  14)  ---------------------------------------


    POTLOK:  cpu time    2.2317: real time    2.2415
    SETDIJ:  cpu time    0.0240: real time    0.0244
    EDDIAG:  cpu time    4.1044: real time    4.1253
  RMM-DIIS:  cpu time   19.4850: real time   19.5857
    ORTHCH:  cpu time    0.3200: real time    0.3207
       DOS:  cpu time    0.0020: real time    0.0019
    CHARGE:  cpu time    2.1427: real time    2.1539
    MIXING:  cpu time    0.0590: real time    0.0596
    --------------------------------------------
      LOOP:  cpu time   28.3707: real time   28.5171

 eigenvalue-minimisations  :   510
 total energy-change (2. order) : 0.2390764E+01  (-0.4165413E+01)
 number of electron     379.9999123 magnetization 
 augmentation part      126.0360785 magnetization 

 Broyden mixing:
  rms(total) = 0.91249E+00    rms(broyden)= 0.90970E+00
  rms(prec ) = 0.11732E+01
  weight for this iteration     100.00

 eigenvalues of (default mixing * dielectric matrix)
  average eigenvalue GAMMA=   0.7688
  0.3890  1.1486

 Free energy of the ion-electron system (eV)
  ---------------------------------------------------
  alpha Z        PSCENC =       355.51581029
  Ewald energy   TEWEN  =     67873.47708066
  -Hartree energ DENC   =    -94982.04731670
  -exchange      EXHF   =         0.00000000
  -V(xc)+E(xc)   XCENC  =      -112.82381950
  PAW double counting   =     22405.61021359   -21177.07359856
  entropy T*S    EENTRO =        -0.00444156
  eigenvalues    EBANDS =     -2768.66361975
  atomic energy  EATOM  =     28224.09016519
  Solvation  Ediel_sol  =         0.00000000
  ---------------------------------------------------
  free energy    TOTEN  =      -181.91952635 eV

  energy without entropy =     -181.91508479  energy(sigma->0) =     -181.91804583


--------------------------------------------------------------------------------------------------------




----------------------------------------- Iteration    1(  15)  ---------------------------------------


    POTLOK:  cpu time    2.1977: real time    2.2032
    SETDIJ:  cpu time    0.0240: real time    0.0244
    EDDIAG:  cpu time    4.1424: real time    4.1673
  RMM-DIIS:  cpu time   21.4667: real time   21.5532
    ORTHCH:  cpu time    0.3130: real time    0.3126
       DOS:  cpu time    0.0010: real time    0.0015
    CHARGE:  cpu time    2.1397: real time    2.1484
    MIXING:  cpu time    0.0550: real time    0.0552
    --------------------------------------------
      LOOP:  cpu time   30.3414: real time   30.4699

 eigenvalue-minimisations  :   560
 total energy-change (2. order) : 0.7391158E+00  (-0.1689683E+01)
 number of electron     379.9999109 magnetization 
 augmentation part      126.4764594 magnetization 

 Broyden mixing:
  rms(total) = 0.55245E+00    rms(broyden)= 0.55152E+00
  rms(prec ) = 0.70679E+00
  weight for this iteration     100.00

 eigenvalues of (default mixing * dielectric matrix)
  average eigenvalue GAMMA=   0.7097
  1.2318  0.4486  0.4486

 Free energy of the ion-electron system (eV)
  ---------------------------------------------------
  alpha Z        PSCENC =       355.51581029
  Ewald energy   TEWEN  =     67873.47708066
  -Hartree energ DENC   =    -95016.62560956
  -exchange      EXHF   =         0.00000000
  -V(xc)+E(xc)   XCENC  =      -113.62990318
  PAW double counting   =     22606.94284460   -21389.99061840
  entropy T*S    EENTRO =        -0.18511849
  eigenvalues    EBANDS =     -2720.77506169
  atomic energy  EATOM  =     28224.09016519
  Solvation  Ediel_sol  =         0.00000000
  ---------------------------------------------------
  free energy    TOTEN  =      -181.18041060 eV

  energy without entropy =     -180.99529210  energy(sigma->0) =     -181.11870443


--------------------------------------------------------------------------------------------------------




----------------------------------------- Iteration    1(  16)  ---------------------------------------


    POTLOK:  cpu time    2.2017: real time    2.2140
    SETDIJ:  cpu time    0.0240: real time    0.0243
    EDDIAG:  cpu time    4.1284: real time    4.1468
  RMM-DIIS:  cpu time   21.8257: real time   21.9427
    ORTHCH:  cpu time    0.3190: real time    0.3185
       DOS:  cpu time    0.0020: real time    0.0019
    CHARGE:  cpu time    2.1367: real time    2.1454
    MIXING:  cpu time    0.0680: real time    0.0677
    --------------------------------------------
      LOOP:  cpu time   30.7073: real time   30.8659

 eigenvalue-minimisations  :   568
 total energy-change (2. order) :-0.4857750E+00  (-0.9422596E+00)
 number of electron     379.9999113 magnetization 
 augmentation part      126.6865221 magnetization 

 Broyden mixing:
  rms(total) = 0.42511E+00    rms(broyden)= 0.42417E+00
  rms(prec ) = 0.55660E+00
  weight for this iteration     100.00

 eigenvalues of (default mixing * dielectric matrix)
  average eigenvalue GAMMA=   0.7019
  1.0910  0.9392  0.3256  0.4519

 Free energy of the ion-electron system (eV)
  ---------------------------------------------------
  alpha Z        PSCENC =       355.51581029
  Ewald energy   TEWEN  =     67873.47708066
  -Hartree energ DENC   =    -95035.21099784
  -exchange      EXHF   =         0.00000000
  -V(xc)+E(xc)   XCENC  =      -113.46460640
  PAW double counting   =     22718.75941155   -21505.53117757
  entropy T*S    EENTRO =        -0.11262687
  eigenvalues    EBANDS =     -2699.18924461
  atomic energy  EATOM  =     28224.09016519
  Solvation  Ediel_sol  =         0.00000000
  ---------------------------------------------------
  free energy    TOTEN  =      -181.66618561 eV

  energy without entropy =     -181.55355874  energy(sigma->0) =     -181.62864332


--------------------------------------------------------------------------------------------------------




----------------------------------------- Iteration    1(  17)  ---------------------------------------


    POTLOK:  cpu time    2.2197: real time    2.2278
    SETDIJ:  cpu time    0.0290: real time    0.0297
    EDDIAG:  cpu time    4.1464: real time    4.1731
  RMM-DIIS:  cpu time   22.4306: real time   22.5239
    ORTHCH:  cpu time    0.3200: real time    0.3204
       DOS:  cpu time    0.0020: real time    0.0020
    CHARGE:  cpu time    2.1257: real time    2.1374
    MIXING:  cpu time    0.0640: real time    0.0642
    --------------------------------------------
      LOOP:  cpu time   31.3402: real time   31.4830

 eigenvalue-minimisations  :   587
 total energy-change (2. order) :-0.5053550E+00  (-0.5614411E+00)
 number of electron     379.9999113 magnetization 
 augmentation part      126.4203989 magnetization 

 Broyden mixing:
  rms(total) = 0.36505E+00    rms(broyden)= 0.36379E+00
  rms(prec ) = 0.44347E+00
  weight for this iteration     100.00

 eigenvalues of (default mixing * dielectric matrix)
  average eigenvalue GAMMA=   0.6932
  1.1828  1.1828  0.4235  0.4235  0.2531

 Free energy of the ion-electron system (eV)
  ---------------------------------------------------
  alpha Z        PSCENC =       355.51581029
  Ewald energy   TEWEN  =     67873.47708066
  -Hartree energ DENC   =    -95061.81571528
  -exchange      EXHF   =         0.00000000
  -V(xc)+E(xc)   XCENC  =      -113.05889614
  PAW double counting   =     22824.46071099   -21612.83305593
  entropy T*S    EENTRO =        -0.13916518
  eigenvalues    EBANDS =     -2671.86847521
  atomic energy  EATOM  =     28224.09016519
  Solvation  Ediel_sol  =         0.00000000
  ---------------------------------------------------
  free energy    TOTEN  =      -182.17154061 eV

  energy without entropy =     -182.03237543  energy(sigma->0) =     -182.12515222


--------------------------------------------------------------------------------------------------------




----------------------------------------- Iteration    1(  18)  ---------------------------------------


    POTLOK:  cpu time    2.2127: real time    2.2178
    SETDIJ:  cpu time    0.0260: real time    0.0259
    EDDIAG:  cpu time    4.0774: real time    4.1134
  RMM-DIIS:  cpu time   21.8707: real time   21.9913
    ORTHCH:  cpu time    0.3190: real time    0.3192
       DOS:  cpu time    0.0020: real time    0.0020
    CHARGE:  cpu time    2.2437: real time    2.2518
    MIXING:  cpu time    0.0680: real time    0.0680
    --------------------------------------------
      LOOP:  cpu time   30.8213: real time   30.9941

 eigenvalue-minimisations  :   573
 total energy-change (2. order) :-0.3695352E+00  (-0.2988846E+00)
 number of electron     379.9999112 magnetization 
 augmentation part      126.3627799 magnetization 

 Broyden mixing:
  rms(total) = 0.29294E+00    rms(broyden)= 0.29222E+00
  rms(prec ) = 0.34227E+00
  weight for this iteration     100.00

 eigenvalues of (default mixing * dielectric matrix)
  average eigenvalue GAMMA=   0.6754
  1.2145  1.2145  0.5232  0.5232  0.3497  0.2274

 Free energy of the ion-electron system (eV)
  ---------------------------------------------------
  alpha Z        PSCENC =       355.51581029
  Ewald energy   TEWEN  =     67873.47708066
  -Hartree energ DENC   =    -95083.47204917
  -exchange      EXHF   =         0.00000000
  -V(xc)+E(xc)   XCENC  =      -112.75396940
  PAW double counting   =     22901.95080376   -21691.27755998
  entropy T*S    EENTRO =        -0.11708252
  eigenvalues    EBANDS =     -2649.95427468
  atomic energy  EATOM  =     28224.09016519
  Solvation  Ediel_sol  =         0.00000000
  ---------------------------------------------------
  free energy    TOTEN  =      -182.54107585 eV

  energy without entropy =     -182.42399333  energy(sigma->0) =     -182.50204834


--------------------------------------------------------------------------------------------------------




----------------------------------------- Iteration    1(  19)  ---------------------------------------


    POTLOK:  cpu time    2.2127: real time    2.2290
    SETDIJ:  cpu time    0.0250: real time    0.0254
    EDDIAG:  cpu time    4.1374: real time    4.1611
  RMM-DIIS:  cpu time   21.9417: real time   22.0262
    ORTHCH:  cpu time    0.3210: real time    0.3211
       DOS:  cpu time    0.0020: real time    0.0018
    CHARGE:  cpu time    2.1497: real time    2.1581
    MIXING:  cpu time    0.0690: real time    0.0691
    --------------------------------------------
      LOOP:  cpu time   30.8623: real time   30.9962

 eigenvalue-minimisations  :   573
 total energy-change (2. order) :-0.1669501E+00  (-0.1513251E+00)
 number of electron     379.9999113 magnetization 
 augmentation part      126.3925663 magnetization 

 Broyden mixing:
  rms(total) = 0.25412E+00    rms(broyden)= 0.25360E+00
  rms(prec ) = 0.31024E+00
  weight for this iteration     100.00

 eigenvalues of (default mixing * dielectric matrix)
  average eigenvalue GAMMA=   0.6896
  1.1392  1.1392  1.1522  0.4449  0.4449  0.3006  0.2059

 Free energy of the ion-electron system (eV)
  ---------------------------------------------------
  alpha Z        PSCENC =       355.51581029
  Ewald energy   TEWEN  =     67873.47708066
  -Hartree energ DENC   =    -95096.65551462
  -exchange      EXHF   =         0.00000000
  -V(xc)+E(xc)   XCENC  =      -112.54943791
  PAW double counting   =     22954.01723248   -21743.93633179
  entropy T*S    EENTRO =        -0.05009870
  eigenvalues    EBANDS =     -2636.61693153
  atomic energy  EATOM  =     28224.09016519
  Solvation  Ediel_sol  =         0.00000000
  ---------------------------------------------------
  free energy    TOTEN  =      -182.70802593 eV

  energy without entropy =     -182.65792723  energy(sigma->0) =     -182.69132636


--------------------------------------------------------------------------------------------------------




----------------------------------------- Iteration    1(  20)  ---------------------------------------


    POTLOK:  cpu time    2.2157: real time    2.2294
    SETDIJ:  cpu time    0.0250: real time    0.0248
    EDDIAG:  cpu time    4.0784: real time    4.1160
  RMM-DIIS:  cpu time   21.7407: real time   21.8363
    ORTHCH:  cpu time    0.3090: real time    0.3136
       DOS:  cpu time    0.0010: real time    0.0016
    CHARGE:  cpu time    2.1817: real time    2.1893
    MIXING:  cpu time    0.0760: real time    0.0754
    --------------------------------------------
      LOOP:  cpu time   30.6293: real time   30.7904

 eigenvalue-minimisations  :   566
 total energy-change (2. order) :-0.1431743E+00  (-0.7889228E-01)
 number of electron     379.9999112 magnetization 
 augmentation part      126.5778685 magnetization 

 Broyden mixing:
  rms(total) = 0.25159E+00    rms(broyden)= 0.25087E+00
  rms(prec ) = 0.32950E+00
  weight for this iteration     100.00

 eigenvalues of (default mixing * dielectric matrix)
  average eigenvalue GAMMA=   0.7176
  1.3708  1.3708  1.2208  0.5050  0.5050  0.3556  0.2431  0.1699

 Free energy of the ion-electron system (eV)
  ---------------------------------------------------
  alpha Z        PSCENC =       355.51581029
  Ewald energy   TEWEN  =     67873.47708066
  -Hartree energ DENC   =    -95102.60728271
  -exchange      EXHF   =         0.00000000
  -V(xc)+E(xc)   XCENC  =      -112.43165400
  PAW double counting   =     22985.05136969   -21775.33792159
  entropy T*S    EENTRO =         0.05027648
  eigenvalues    EBANDS =     -2630.65904428
  atomic energy  EATOM  =     28224.09016519
  Solvation  Ediel_sol  =         0.00000000
  ---------------------------------------------------
  free energy    TOTEN  =      -182.85120027 eV

  energy without entropy =     -182.90147675  energy(sigma->0) =     -182.86795910


--------------------------------------------------------------------------------------------------------




----------------------------------------- Iteration    1(  21)  ---------------------------------------


    POTLOK:  cpu time    2.2387: real time    2.2481
    SETDIJ:  cpu time    0.0260: real time    0.0262
    EDDIAG:  cpu time    4.1554: real time    4.1874
  RMM-DIIS:  cpu time   20.0160: real time   20.0982
    ORTHCH:  cpu time    0.3210: real time    0.3210
       DOS:  cpu time    0.0020: real time    0.0018
    CHARGE:  cpu time    2.1647: real time    2.1711
    MIXING:  cpu time    0.0760: real time    0.0756
    --------------------------------------------
      LOOP:  cpu time   29.0016: real time   29.1339

 eigenvalue-minimisations  :   523
 total energy-change (2. order) :-0.9052614E-02  (-0.3623381E-01)
 number of electron     379.9999112 magnetization 
 augmentation part      126.4240625 magnetization 

 Broyden mixing:
  rms(total) = 0.19128E+00    rms(broyden)= 0.19079E+00
  rms(prec ) = 0.24944E+00
  weight for this iteration     100.00

 eigenvalues of (default mixing * dielectric matrix)
  average eigenvalue GAMMA=   0.7249
  1.4557  1.4557  1.1604  0.8775  0.4380  0.4380  0.3128  0.2227  0.1631

 Free energy of the ion-electron system (eV)
  ---------------------------------------------------
  alpha Z        PSCENC =       355.51581029
  Ewald energy   TEWEN  =     67873.47708066
  -Hartree energ DENC   =    -95116.90925439
  -exchange      EXHF   =         0.00000000
  -V(xc)+E(xc)   XCENC  =      -112.26455628
  PAW double counting   =     23023.30172818   -21813.68780446
  entropy T*S    EENTRO =         0.04109641
  eigenvalues    EBANDS =     -2616.42451848
  atomic energy  EATOM  =     28224.09016519
  Solvation  Ediel_sol  =         0.00000000
  ---------------------------------------------------
  free energy    TOTEN  =      -182.86025289 eV

  energy without entropy =     -182.90134929  energy(sigma->0) =     -182.87395169


--------------------------------------------------------------------------------------------------------




----------------------------------------- Iteration    1(  22)  ---------------------------------------


    POTLOK:  cpu time    2.2267: real time    2.2385
    SETDIJ:  cpu time    0.0250: real time    0.0248
    EDDIAG:  cpu time    4.0984: real time    4.1321
  RMM-DIIS:  cpu time   19.6450: real time   19.7338
    ORTHCH:  cpu time    0.3210: real time    0.3214
       DOS:  cpu time    0.0020: real time    0.0017
    CHARGE:  cpu time    2.1687: real time    2.1796
    MIXING:  cpu time    0.0780: real time    0.0784
    --------------------------------------------
      LOOP:  cpu time   28.5677: real time   28.7144

 eigenvalue-minimisations  :   515
 total energy-change (2. order) : 0.4710049E-02  (-0.1768838E-01)
 number of electron     379.9999113 magnetization 
 augmentation part      126.3154977 magnetization 

 Broyden mixing:
  rms(total) = 0.15655E+00    rms(broyden)= 0.15608E+00
  rms(prec ) = 0.21501E+00
  weight for this iteration     100.00

 eigenvalues of (default mixing * dielectric matrix)
  average eigenvalue GAMMA=   0.7603
  1.6462  1.4795  1.4795  0.9763  0.5107  0.5107  0.3499  0.2850  0.2084  0.1572

 Free energy of the ion-electron system (eV)
  ---------------------------------------------------
  alpha Z        PSCENC =       355.51581029
  Ewald energy   TEWEN  =     67873.47708066
  -Hartree energ DENC   =    -95129.95811397
  -exchange      EXHF   =         0.00000000
  -V(xc)+E(xc)   XCENC  =      -112.12229247
  PAW double counting   =     23056.01570154   -21846.61736339
  entropy T*S    EENTRO =         0.02744840
  eigenvalues    EBANDS =     -2603.28397909
  atomic energy  EATOM  =     28224.09016519
  Solvation  Ediel_sol  =         0.00000000
  ---------------------------------------------------
  free energy    TOTEN  =      -182.85554284 eV

  energy without entropy =     -182.88299124  energy(sigma->0) =     -182.86469231


--------------------------------------------------------------------------------------------------------




----------------------------------------- Iteration    1(  23)  ---------------------------------------


    POTLOK:  cpu time    2.2467: real time    2.2537
    SETDIJ:  cpu time    0.0260: real time    0.0257
    EDDIAG:  cpu time    4.0894: real time    4.1058
  RMM-DIIS:  cpu time   19.3521: real time   19.4366
    ORTHCH:  cpu time    0.3160: real time    0.3197
       DOS:  cpu time    0.0020: real time    0.0017
    CHARGE:  cpu time    2.1617: real time    2.1680
    MIXING:  cpu time    0.0820: real time    0.0825
    --------------------------------------------
      LOOP:  cpu time   28.2777: real time   28.3981

 eigenvalue-minimisations  :   504
 total energy-change (2. order) : 0.1205424E-01  (-0.8767665E-02)
 number of electron     379.9999112 magnetization 
 augmentation part      126.3583871 magnetization 

 Broyden mixing:
  rms(total) = 0.11759E+00    rms(broyden)= 0.11732E+00
  rms(prec ) = 0.17182E+00
  weight for this iteration     100.00

 eigenvalues of (default mixing * dielectric matrix)
  average eigenvalue GAMMA=   0.7670
  2.1910  1.4236  1.4236  0.7853  0.7853  0.4528  0.4528  0.3105  0.2546  0.2017
  0.1561

 Free energy of the ion-electron system (eV)
  ---------------------------------------------------
  alpha Z        PSCENC =       355.51581029
  Ewald energy   TEWEN  =     67873.47708066
  -Hartree energ DENC   =    -95138.10947380
  -exchange      EXHF   =         0.00000000
  -V(xc)+E(xc)   XCENC  =      -112.02611098
  PAW double counting   =     23078.19114935   -21869.14794464
  entropy T*S    EENTRO =         0.06357524
  eigenvalues    EBANDS =     -2594.89773991
  atomic energy  EATOM  =     28224.09016519
  Solvation  Ediel_sol  =         0.00000000
  ---------------------------------------------------
  free energy    TOTEN  =      -182.84348860 eV

  energy without entropy =     -182.90706384  energy(sigma->0) =     -182.86468035


--------------------------------------------------------------------------------------------------------




----------------------------------------- Iteration    1(  24)  ---------------------------------------


    POTLOK:  cpu time    2.2517: real time    2.2597
    SETDIJ:  cpu time    0.0240: real time    0.0245
    EDDIAG:  cpu time    4.0984: real time    4.1113
  RMM-DIIS:  cpu time   19.0091: real time   19.1144
    ORTHCH:  cpu time    0.3090: real time    0.3133
       DOS:  cpu time    0.0010: real time    0.0015
    CHARGE:  cpu time    2.1607: real time    2.1693
    MIXING:  cpu time    0.0830: real time    0.0831
    --------------------------------------------
      LOOP:  cpu time   27.9418: real time   28.0812

 eigenvalue-minimisations  :   499
 total energy-change (2. order) : 0.1178539E-01  (-0.3124222E-02)
 number of electron     379.9999113 magnetization 
 augmentation part      126.3767757 magnetization 

 Broyden mixing:
  rms(total) = 0.11252E+00    rms(broyden)= 0.11225E+00
  rms(prec ) = 0.17731E+00
  weight for this iteration     100.00

 eigenvalues of (default mixing * dielectric matrix)
  average eigenvalue GAMMA=   0.7507
  2.3329  1.4507  1.4507  0.8647  0.8647  0.4540  0.4540  0.3211  0.2741  0.2101
  0.1544  0.1766

 Free energy of the ion-electron system (eV)
  ---------------------------------------------------
  alpha Z        PSCENC =       355.51581029
  Ewald energy   TEWEN  =     67873.47708066
  -Hartree energ DENC   =    -95143.40624883
  -exchange      EXHF   =         0.00000000
  -V(xc)+E(xc)   XCENC  =      -111.94979445
  PAW double counting   =     23092.30597987   -21883.50836259
  entropy T*S    EENTRO =         0.08273263
  eigenvalues    EBANDS =     -2589.43906598
  atomic energy  EATOM  =     28224.09016519
  Solvation  Ediel_sol  =         0.00000000
  ---------------------------------------------------
  free energy    TOTEN  =      -182.83170322 eV

  energy without entropy =     -182.91443585  energy(sigma->0) =     -182.85928076


--------------------------------------------------------------------------------------------------------




----------------------------------------- Iteration    1(  25)  ---------------------------------------


    POTLOK:  cpu time    2.2547: real time    2.2615
    SETDIJ:  cpu time    0.0240: real time    0.0244
    EDDIAG:  cpu time    4.1604: real time    4.1704
  RMM-DIIS:  cpu time   19.0121: real time   19.1066
    ORTHCH:  cpu time    0.3160: real time    0.3159
       DOS:  cpu time    0.0020: real time    0.0018
    CHARGE:  cpu time    2.1727: real time    2.1794
    MIXING:  cpu time    0.0860: real time    0.0856
    --------------------------------------------
      LOOP:  cpu time   28.0287: real time   28.1504

 eigenvalue-minimisations  :   496
 total energy-change (2. order) : 0.1345841E-01  (-0.1752005E-02)
 number of electron     379.9999113 magnetization 
 augmentation part      126.3893996 magnetization 

 Broyden mixing:
  rms(total) = 0.68309E-01    rms(broyden)= 0.67995E-01
  rms(prec ) = 0.96284E-01
  weight for this iteration     100.00

 eigenvalues of (default mixing * dielectric matrix)
  average eigenvalue GAMMA=   0.7429
  2.4159  1.4690  1.4690  0.9551  0.9551  0.4917  0.4917  0.3240  0.3240  0.2569
  0.2051  0.1575  0.1430

 Free energy of the ion-electron system (eV)
  ---------------------------------------------------
  alpha Z        PSCENC =       355.51581029
  Ewald energy   TEWEN  =     67873.47708066
  -Hartree energ DENC   =    -95145.15687935
  -exchange      EXHF   =         0.00000000
  -V(xc)+E(xc)   XCENC  =      -111.92854839
  PAW double counting   =     23094.59550936   -21885.88250993
  entropy T*S    EENTRO =         0.08503257
  eigenvalues    EBANDS =     -2587.61390520
  atomic energy  EATOM  =     28224.09016519
  Solvation  Ediel_sol  =         0.00000000
  ---------------------------------------------------
  free energy    TOTEN  =      -182.81824481 eV

  energy without entropy =     -182.90327738  energy(sigma->0) =     -182.84658900


--------------------------------------------------------------------------------------------------------




----------------------------------------- Iteration    1(  26)  ---------------------------------------


    POTLOK:  cpu time    2.2577: real time    2.2673
    SETDIJ:  cpu time    0.0260: real time    0.0255
    EDDIAG:  cpu time    4.0864: real time    4.1012
  RMM-DIIS:  cpu time   18.6512: real time   18.7524
    ORTHCH:  cpu time    0.3190: real time    0.3189
       DOS:  cpu time    0.0020: real time    0.0017
    CHARGE:  cpu time    2.1317: real time    2.1440
    MIXING:  cpu time    0.1000: real time    0.0996
    --------------------------------------------
      LOOP:  cpu time   27.5758: real time   27.7148

 eigenvalue-minimisations  :   489
 total energy-change (2. order) : 0.8133052E-02  (-0.9051298E-03)
 number of electron     379.9999113 magnetization 
 augmentation part      126.3721074 magnetization 

 Broyden mixing:
  rms(total) = 0.40012E-01    rms(broyden)= 0.39857E-01
  rms(prec ) = 0.55277E-01
  weight for this iteration     100.00

 eigenvalues of (default mixing * dielectric matrix)
  average eigenvalue GAMMA=   0.7382
  2.4903  1.4586  1.4586  1.0526  1.0526  0.5267  0.5267  0.4231  0.3378  0.2717
  0.2410  0.2003  0.1567  0.1384

 Free energy of the ion-electron system (eV)
  ---------------------------------------------------
  alpha Z        PSCENC =       355.51581029
  Ewald energy   TEWEN  =     67873.47708066
  -Hartree energ DENC   =    -95147.88776859
  -exchange      EXHF   =         0.00000000
  -V(xc)+E(xc)   XCENC  =      -111.90858291
  PAW double counting   =     23095.97951399   -21887.31317363
  entropy T*S    EENTRO =         0.07415519
  eigenvalues    EBANDS =     -2584.83731194
  atomic energy  EATOM  =     28224.09016519
  Solvation  Ediel_sol  =         0.00000000
  ---------------------------------------------------
  free energy    TOTEN  =      -182.81011176 eV

  energy without entropy =     -182.88426695  energy(sigma->0) =     -182.83483015


--------------------------------------------------------------------------------------------------------




----------------------------------------- Iteration    1(  27)  ---------------------------------------


    POTLOK:  cpu time    2.2617: real time    2.2690
    SETDIJ:  cpu time    0.0250: real time    0.0247
    EDDIAG:  cpu time    4.1094: real time    4.1271
  RMM-DIIS:  cpu time   18.4952: real time   18.5897
    ORTHCH:  cpu time    0.3170: real time    0.3165
       DOS:  cpu time    0.0020: real time    0.0018
    CHARGE:  cpu time    2.1537: real time    2.1614
    MIXING:  cpu time    0.1040: real time    0.1034
    --------------------------------------------
      LOOP:  cpu time   27.4698: real time   27.5980

 eigenvalue-minimisations  :   483
 total energy-change (2. order) : 0.4367618E-02  (-0.4708956E-03)
 number of electron     379.9999113 magnetization 
 augmentation part      126.3581018 magnetization 

 Broyden mixing:
  rms(total) = 0.23588E-01    rms(broyden)= 0.23462E-01
  rms(prec ) = 0.32317E-01
  weight for this iteration     100.00

 eigenvalues of (default mixing * dielectric matrix)
  average eigenvalue GAMMA=   0.7472
  2.4105  1.4675  1.4675  1.2452  0.9791  0.9791  0.4894  0.4894  0.3477  0.3477
  0.2626  0.2300  0.1985  0.1564  0.1379

 Free energy of the ion-electron system (eV)
  ---------------------------------------------------
  alpha Z        PSCENC =       355.51581029
  Ewald energy   TEWEN  =     67873.47708066
  -Hartree energ DENC   =    -95150.73713320
  -exchange      EXHF   =         0.00000000
  -V(xc)+E(xc)   XCENC  =      -111.88713578
  PAW double counting   =     23096.26270925   -21887.62471896
  entropy T*S    EENTRO =         0.06707693
  eigenvalues    EBANDS =     -2581.96959851
  atomic energy  EATOM  =     28224.09016519
  Solvation  Ediel_sol  =         0.00000000
  ---------------------------------------------------
  free energy    TOTEN  =      -182.80574414 eV

  energy without entropy =     -182.87282107  energy(sigma->0) =     -182.82810312


--------------------------------------------------------------------------------------------------------




----------------------------------------- Iteration    1(  28)  ---------------------------------------


    POTLOK:  cpu time    2.2677: real time    2.2772
    SETDIJ:  cpu time    0.0230: real time    0.0246
    EDDIAG:  cpu time    4.0704: real time    4.0860
  RMM-DIIS:  cpu time   18.5112: real time   18.6020
    ORTHCH:  cpu time    0.3200: real time    0.3199
       DOS:  cpu time    0.0010: real time    0.0017
    CHARGE:  cpu time    2.1577: real time    2.1699
    MIXING:  cpu time    0.1160: real time    0.1164
    --------------------------------------------
      LOOP:  cpu time   27.4698: real time   27.6021

 eigenvalue-minimisations  :   484
 total energy-change (2. order) : 0.1675103E-02  (-0.2198622E-03)
 number of electron     379.9999113 magnetization 
 augmentation part      126.3583171 magnetization 

 Broyden mixing:
  rms(total) = 0.16642E-01    rms(broyden)= 0.16612E-01
  rms(prec ) = 0.23557E-01
  weight for this iteration     100.00

 eigenvalues of (default mixing * dielectric matrix)
  average eigenvalue GAMMA=   0.7614
  2.1599  2.1599  1.4551  1.4551  0.9385  0.9385  0.5161  0.5161  0.3993  0.3335
  0.3335  0.2580  0.2266  0.1982  0.1564  0.1379

 Free energy of the ion-electron system (eV)
  ---------------------------------------------------
  alpha Z        PSCENC =       355.51581029
  Ewald energy   TEWEN  =     67873.47708066
  -Hartree energ DENC   =    -95153.52231802
  -exchange      EXHF   =         0.00000000
  -V(xc)+E(xc)   XCENC  =      -111.86266540
  PAW double counting   =     23093.87119402   -21885.20421483
  entropy T*S    EENTRO =         0.06791452
  eigenvalues    EBANDS =     -2579.23703546
  atomic energy  EATOM  =     28224.09016519
  Solvation  Ediel_sol  =         0.00000000
  ---------------------------------------------------
  free energy    TOTEN  =      -182.80406904 eV

  energy without entropy =     -182.87198356  energy(sigma->0) =     -182.82670721


--------------------------------------------------------------------------------------------------------




----------------------------------------- Iteration    1(  29)  ---------------------------------------


    POTLOK:  cpu time    2.2727: real time    2.2813
    SETDIJ:  cpu time    0.0250: real time    0.0247
    EDDIAG:  cpu time    4.0864: real time    4.1032
  RMM-DIIS:  cpu time   16.8174: real time   16.8855
    ORTHCH:  cpu time    0.3200: real time    0.3201
       DOS:  cpu time    0.0020: real time    0.0018
    CHARGE:  cpu time    2.1757: real time    2.1870
    MIXING:  cpu time    0.1100: real time    0.1159
    --------------------------------------------
      LOOP:  cpu time   25.8121: real time   25.9237

 eigenvalue-minimisations  :   436
 total energy-change (2. order) :-0.6734769E-04  (-0.1037577E-03)
 number of electron     379.9999113 magnetization 
 augmentation part      126.3634488 magnetization 

 Broyden mixing:
  rms(total) = 0.10014E-01    rms(broyden)= 0.99734E-02
  rms(prec ) = 0.14902E-01
  weight for this iteration     100.00

 eigenvalues of (default mixing * dielectric matrix)
  average eigenvalue GAMMA=   0.7600
  2.3718  2.1719  1.4066  1.4066  0.9213  0.9213  0.8021  0.4828  0.4828  0.3514
  0.3514  0.2803  0.2526  0.2249  0.1980  0.1565  0.1379

 Free energy of the ion-electron system (eV)
  ---------------------------------------------------
  alpha Z        PSCENC =       355.51581029
  Ewald energy   TEWEN  =     67873.47708066
  -Hartree energ DENC   =    -95155.91393271
[...]
     84      -6.9352      2.00000
     85      -6.8940      2.00000
     86      -6.8494      2.00000
     87      -6.8006      2.00000
     88      -6.7797      2.00000
     89      -6.7478      2.00000
     90      -6.6962      2.00000
     91      -6.6253      2.00000
     92      -6.5943      2.00000
     93      -6.5518      2.00000
     94      -6.4938      2.00000
     95      -6.4544      2.00000
     96      -6.4068      2.00000
     97      -6.3746      2.00000
     98      -6.3647      2.00000
     99      -6.3601      2.00000
    100      -6.3443      2.00000
    101      -6.3193      2.00000
    102      -6.3167      2.00000
    103      -6.2926      2.00000
    104      -6.2832      2.00000
    105      -6.2767      2.00000
    106      -6.2598      2.00000
    107      -6.2491      2.00000
    108      -6.2167      2.00000
    109      -6.1273      2.00000
    110      -6.1046      2.00000
    111      -6.0792      2.00000
    112      -6.0606      2.00000
    113      -6.0316      2.00000
    114      -6.0220      2.00000
    115      -6.0133      2.00000
    116      -6.0070      2.00000
    117      -6.0025      2.00000
    118      -5.9792      2.00000
    119      -5.9648      2.00000
    120      -5.9417      2.00000
    121      -5.5450      2.00000
    122      -5.5290      2.00000
    123      -5.5245      2.00000
    124      -5.4574      2.00000
    125      -5.4428      2.00000
    126      -5.4133      2.00000
    127      -5.3955      2.00000
    128      -5.3823      2.00000
    129      -5.3669      2.00000
    130      -5.3530      2.00000
    131      -5.3384      2.00000
    132      -5.3195      2.00000
    133      -5.3122      2.00000
    134      -5.2976      2.00000
    135      -5.2698      2.00000
    136      -5.2643      2.00000
    137      -5.2612      2.00000
    138      -5.2412      2.00000
    139      -5.2351      2.00000
    140      -5.2218      2.00000
    141      -5.1911      2.00000
    142      -4.9881      2.00000
    143      -4.9738      2.00000
    144      -4.9667      2.00000
    145      -4.9390      2.00000
    146      -4.9228      2.00000
    147      -4.9197      2.00000
    148      -4.8969      2.00000
    149      -4.8949      2.00000
    150      -4.8821      2.00000
    151      -4.8776      2.00000
    152      -4.8738      2.00000
    153      -4.8699      2.00000
    154      -4.8491      2.00001
    155      -4.8227      2.00001
    156      -4.8203      2.00001
    157      -4.7932      2.00003
    158      -4.7596      2.00009
    159      -4.7415      2.00016
    160      -4.6959      2.00054
    161      -4.6888      2.00065
    162      -4.6726      2.00097
    163      -4.5986      2.00506
    164      -4.5857      2.00653
    165      -4.5745      2.00808
    166      -4.5637      2.00985
    167      -4.5508      2.01236
    168      -4.5330      2.01660
    169      -4.5210      2.02004
    170      -4.5087      2.02400
    171      -4.4971      2.02819
    172      -4.4839      2.03348
    173      -4.4774      2.03620
    174      -4.4677      2.04049
    175      -4.4616      2.04325
    176      -4.4584      2.04471
    177      -4.4483      2.04942
    178      -4.4367      2.05473
    179      -4.4236      2.06034
    180      -4.4149      2.06371
    181      -4.4070      2.06636
    182      -4.3842      2.07080
    183      -4.3766      2.07081
    184      -4.3703      2.07008
    185      -4.3572      2.06612
    186      -4.3025      1.99734
    187      -4.2206      1.65378
    188      -4.1717      1.30197
    189      -4.1394      1.03422
    190      -4.1248      0.91069
    191      -4.0964      0.67688
    192      -4.0805      0.55461
    193      -4.0689      0.47040
    194      -4.0465      0.32378
    195      -4.0391      0.28051
    196      -3.9927      0.07111
    197      -3.9831      0.04096
    198      -3.9686      0.00354
    199      -3.9474     -0.03541
    200      -3.9135     -0.06612
    201      -3.8937     -0.07083
    202      -3.7733     -0.02809
    203      -3.7229     -0.01300
    204      -3.6927     -0.00756
    205      -3.6290     -0.00201
    206      -3.5519     -0.00029
    207      -3.5205     -0.00012
    208      -2.5473      0.00000
    209      -2.4576      0.00000
    210      -2.3710      0.00000
    211      -2.3320      0.00000
    212      -2.2432      0.00000
    213      -2.2286      0.00000
    214      -2.2079      0.00000
    215      -2.1804      0.00000
    216      -2.1593      0.00000
    217      -2.1137      0.00000
    218      -2.0725      0.00000
    219      -1.9895      0.00000
    220      -1.4233      0.00000
    221      -0.9622      0.00000
    222      -0.9402      0.00000
    223      -0.8714      0.00000
    224      -0.7271      0.00000
    225      -0.5706      0.00000
    226      -0.4074      0.00000
    227      -0.3812      0.00000
    228      -0.2867      0.00000


--------------------------------------------------------------------------------------------------------


 soft charge-density along one line, spin component           1
         0         1         2         3         4         5         6         7         8         9
 total charge-density along one line
 
 pseudopotential strength for first ion, spin component:           1
-11.619  -0.002  -0.041   0.003  -0.020   0.288   0.000   0.005
 -0.002 -11.760   0.002   0.026  -0.004   0.000   0.304   0.000
 -0.041   0.002 -11.689  -0.001  -0.051   0.005   0.000   0.296
  0.003   0.026  -0.001 -11.625   0.000   0.000  -0.003   0.000
 -0.020  -0.004  -0.051   0.000 -11.667   0.002   0.000   0.007
  0.288   0.000   0.005   0.000   0.002   0.165   0.000  -0.001
  0.000   0.304   0.000  -0.003   0.000   0.000   0.163   0.000
  0.005   0.000   0.296   0.000   0.007  -0.001   0.000   0.164
  0.000  -0.003   0.000   0.288   0.000   0.000   0.000   0.000
  0.002   0.000   0.007   0.000   0.293   0.000   0.000  -0.001
 -0.017  -0.002   0.016   0.001  -0.028   0.002   0.000  -0.001
  0.001   0.000  -0.001   0.000   0.002   0.000   0.000   0.000
  0.015   0.002  -0.003   0.000  -0.004  -0.003   0.000   0.001
  0.000   0.007   0.002   0.014   0.000   0.000  -0.001   0.000
  0.007   0.000  -0.009   0.002   0.015  -0.001   0.000   0.001
 -0.013  -0.001   0.002   0.000   0.004   0.002   0.000   0.000
  0.000  -0.005  -0.001  -0.012   0.000   0.000   0.001   0.000
 -0.005   0.000   0.007  -0.001  -0.012   0.001   0.000  -0.001
 total augmentation occupancy for first ion, spin component:           1
  1.899  -0.002  -0.074   0.004  -0.096  -0.061   0.004   0.044  -0.002   0.056   0.009  -0.019   0.026   0.001  -0.011   0.015
 -0.002   1.574   0.003   0.024  -0.008   0.004   0.179  -0.002  -0.013   0.004  -0.004   0.000  -0.003   0.009   0.000   0.002
 -0.074   0.003   1.768  -0.002  -0.041   0.041  -0.002   0.032   0.000   0.005  -0.058   0.003   0.004   0.004  -0.014  -0.004
  0.004   0.024  -0.002   1.854   0.006  -0.002  -0.009   0.000  -0.027  -0.001  -0.008  -0.001   0.001  -0.020   0.001   0.000
 -0.096  -0.008  -0.041   0.006   1.695   0.054   0.005   0.010  -0.002   0.074   0.002  -0.022   0.001   0.001  -0.031  -0.005
 -0.061   0.004   0.041  -0.002   0.054   0.195   0.002  -0.024  -0.003  -0.036  -0.056   0.000  -0.099   0.001  -0.001   0.004
  0.004   0.179  -0.002  -0.009   0.005   0.002   0.159  -0.001   0.001  -0.001  -0.007   0.001  -0.001  -0.024   0.001   0.000
  0.044  -0.002   0.032   0.000   0.010  -0.024  -0.001   0.195   0.001   0.007   0.098  -0.009   0.041  -0.002   0.021  -0.001
 -0.002  -0.013   0.000  -0.027  -0.002  -0.003   0.001   0.001   0.255   0.002   0.009  -0.001   0.001  -0.141  -0.002   0.000
  0.056   0.004   0.005  -0.001   0.074  -0.036  -0.001   0.007   0.002   0.210  -0.096   0.007   0.083   0.000  -0.067  -0.003
  0.009  -0.004  -0.058  -0.008   0.002  -0.056  -0.007   0.098   0.009  -0.096   1.170  -0.322  -0.050  -0.008  -0.125   0.004
 -0.019   0.000   0.003  -0.001  -0.022   0.000   0.001  -0.009  -0.001   0.007  -0.322   0.135   0.030   0.000   0.073  -0.002
  0.026  -0.003   0.004   0.001   0.001  -0.099  -0.001   0.041   0.001   0.083  -0.050   0.030   0.149  -0.003  -0.019  -0.006
  0.001   0.009   0.004  -0.020   0.001   0.001  -0.024  -0.002  -0.141   0.000  -0.008   0.000  -0.003   0.144   0.000   0.000
 -0.011   0.000  -0.014   0.001  -0.031  -0.001   0.001   0.021  -0.002  -0.067  -0.125   0.073  -0.019   0.000   0.082   0.000
  0.015   0.002  -0.004   0.000  -0.005   0.004   0.000  -0.001   0.000  -0.003   0.004  -0.002  -0.006   0.000   0.000   0.000
  0.000   0.005   0.002   0.018   0.000   0.000   0.002   0.000   0.006   0.000   0.000   0.000   0.000  -0.006   0.000   0.000
  0.007   0.000  -0.009   0.002   0.016   0.000   0.000   0.000   0.000   0.003   0.011  -0.005   0.000   0.000  -0.004   0.000


------------------------ aborting loop because EDIFF is reached ----------------------------------------


    CHARGE:  cpu time    2.1277: real time    2.1364
    FORLOC:  cpu time    0.3300: real time    0.3296
    FORNL :  cpu time    6.1261: real time    6.1503
    FORCOR:  cpu time    2.4336: real time    2.4429
    FORHAR:  cpu time    0.8539: real time    0.8564
    MIXING:  cpu time    0.0570: real time    0.0572
    OFIELD:  cpu time    0.0000: real time    0.0001

 VOLUME and BASIS-vectors are now :
 -----------------------------------------------------------------------------
  energy-cutoff  :      274.00
  volume of cell :     5832.00
      direct lattice vectors                 reciprocal lattice vectors
    18.000000000  0.000000000  0.000000000     0.055555556  0.000000000  0.000000000
     0.000000000 18.000000000  0.000000000     0.000000000  0.055555556  0.000000000
     0.000000000  0.000000000 18.000000000     0.000000000  0.000000000  0.055555556

  length of vectors
    18.000000000 18.000000000 18.000000000     0.055555556  0.055555556  0.055555556


 FORCES acting on ions
    electron-ion (+dipol)            ewald-force                    non-local-force                 convergence-correction
 -----------------------------------------------------------------------------------------------
   -.140E+04 -.465E+03 -.207E+01   0.140E+04 0.465E+03 0.183E+01   0.131E+01 0.411E+00 0.222E+00   0.353E-02 0.866E-03 0.188E-01
   -.476E+03 -.140E+04 0.344E+01   0.475E+03 0.140E+04 -.364E+01   0.471E+00 0.138E+01 0.178E+00   -.419E-01 0.102E-01 0.276E-01
   -.494E+03 0.491E+03 0.496E+01   0.494E+03 -.490E+03 -.499E+01   0.791E+00 -.752E+00 -.249E-01   -.505E-02 0.130E-02 0.624E-01
   0.140E+04 -.467E+03 -.648E+01   -.140E+04 0.467E+03 0.629E+01   -.132E+01 0.447E+00 0.158E+00   0.285E-01 0.384E-01 0.338E-01
   0.486E+03 -.140E+04 -.327E+01   -.485E+03 0.139E+04 0.313E+01   -.490E+00 0.143E+01 0.120E+00   -.165E-01 -.189E-01 0.287E-01
   -.576E+01 0.203E+02 0.719E+03   0.579E+01 -.208E+02 -.718E+03   -.157E-01 0.402E+00 -.331E+00   -.946E-02 0.228E-01 0.696E-01
   0.140E+04 0.489E+03 0.199E+01   -.139E+04 -.488E+03 -.195E+01   -.113E+01 -.601E+00 -.843E-01   -.184E-02 0.283E-01 0.463E-01
   0.478E+03 0.140E+04 -.208E+01   -.478E+03 -.140E+04 0.207E+01   -.513E+00 -.112E+01 -.383E-01   0.772E-02 -.482E-02 0.447E-01
   -.139E+04 0.495E+03 -.479E+01   0.139E+04 -.494E+03 0.490E+01   0.122E+01 -.668E+00 -.121E+00   0.684E-03 -.149E-01 0.142E-01
   -.476E+03 0.140E+04 -.718E+01   0.476E+03 -.140E+04 0.723E+01   0.615E+00 -.117E+01 -.815E-01   0.131E-01 -.115E-02 0.274E-01
   -.112E+04 0.127E+01 -.793E+03   0.112E+04 -.116E+01 0.794E+03   -.772E+00 -.934E-01 -.598E+00   -.409E-01 -.984E-02 0.396E-01
   0.112E+04 -.115E+01 -.792E+03   -.112E+04 0.112E+01 0.792E+03   0.700E+00 -.314E-02 -.424E+00   0.406E-01 0.366E-01 0.370E-01
   0.185E+01 -.112E+04 -.788E+03   -.181E+01 0.112E+04 0.788E+03   0.735E-02 -.669E+00 -.453E+00   -.478E-01 -.194E-01 0.135E-01
   -.604E+00 0.112E+04 -.797E+03   0.505E+00 -.112E+04 0.797E+03   0.920E-01 0.746E+00 -.575E+00   -.671E-03 0.406E-01 0.465E-01
   -.948E+03 -.950E+03 -.673E+03   0.947E+03 0.948E+03 0.673E+03   0.121E+01 0.119E+01 0.579E+00   -.413E-01 -.221E-02 0.333E-01
   0.953E+03 -.948E+03 -.681E+03   -.952E+03 0.947E+03 0.681E+03   -.105E+01 0.102E+01 0.506E+00   0.280E-01 -.107E-01 0.377E-02
   0.946E+03 0.945E+03 -.684E+03   -.945E+03 -.944E+03 0.683E+03   -.107E+01 -.113E+01 0.825E+00   0.209E-01 0.299E-01 0.499E-01
   -.944E+03 0.951E+03 -.687E+03   0.943E+03 -.950E+03 0.686E+03   0.860E+00 -.930E+00 0.596E+00   -.173E-01 0.468E-02 0.269E-01
   -.112E+04 0.945E+01 0.795E+03   0.112E+04 -.944E+01 -.796E+03   -.638E+00 -.753E-02 0.737E+00   0.231E-01 -.771E-02 0.206E-01
   0.111E+04 0.129E+01 0.793E+03   -.111E+04 -.146E+01 -.794E+03   0.545E+00 0.122E+00 0.600E+00   -.253E-01 0.492E-01 0.432E-01
   0.558E+01 -.112E+04 0.789E+03   -.556E+01 0.112E+04 -.790E+03   0.153E-01 -.816E+00 0.418E+00   -.362E-01 0.467E-01 0.562E-01
   -.263E+01 0.111E+04 0.801E+03   0.247E+01 -.111E+04 -.802E+03   0.142E+00 0.354E+00 0.853E+00   0.197E-01 -.259E-01 0.310E-01
   -.951E+03 -.945E+03 0.678E+03   0.950E+03 0.944E+03 -.677E+03   0.783E+00 0.106E+01 -.836E+00   0.116E-02 0.269E-01 0.195E-01
   0.961E+03 -.945E+03 0.669E+03   -.960E+03 0.944E+03 -.668E+03   -.769E+00 0.105E+01 -.820E+00   -.419E-02 0.292E-01 0.505E-01
   0.939E+03 0.946E+03 0.687E+03   -.937E+03 -.945E+03 -.686E+03   -.141E+01 -.124E+01 -.877E+00   -.190E-01 -.125E-01 0.198E-01
   -.940E+03 0.957E+03 0.675E+03   0.939E+03 -.956E+03 -.674E+03   0.123E+01 -.105E+01 -.669E+00   0.217E-01 -.157E-01 0.137E-01
   -.488E+03 -.500E+03 -.130E+04   0.488E+03 0.499E+03 0.130E+04   0.511E+00 0.625E+00 0.151E+01   -.523E-01 -.168E-01 0.356E-03
   0.485E+03 -.494E+03 -.131E+04   -.485E+03 0.493E+03 0.131E+04   -.424E+00 0.508E+00 0.124E+01   0.382E-02 -.955E-02 -.237E-01
   0.491E+03 0.479E+03 -.131E+04   -.490E+03 -.478E+03 0.131E+04   -.626E+00 -.486E+00 0.149E+01   0.174E-01 0.384E-01 -.596E-02
   -.484E+03 0.476E+03 -.132E+04   0.484E+03 -.476E+03 0.131E+04   0.530E+00 -.428E+00 0.121E+01   -.353E-01 0.165E-01 -.426E-03
   -.486E+03 -.501E+03 0.130E+04   0.485E+03 0.500E+03 -.130E+04   0.575E+00 0.548E+00 -.164E+01   0.117E-01 0.283E-01 -.346E-02
   0.490E+03 -.502E+03 0.130E+04   -.490E+03 0.502E+03 -.130E+04   -.596E+00 0.557E+00 -.164E+01   -.317E-01 0.470E-01 0.129E-01
   0.481E+03 0.468E+03 0.130E+04   -.481E+03 -.467E+03 -.130E+04   -.588E+00 -.725E+00 -.308E+01   -.226E-01 -.135E-01 -.209E-01
   -.487E+03 0.475E+03 0.130E+04   0.486E+03 -.474E+03 -.130E+04   0.600E+00 -.775E+00 -.298E+01   0.313E-01 -.208E-01 -.201E-01
   -.575E+01 0.159E+01 -.690E+03   0.580E+01 -.163E+01 0.690E+03   -.121E-01 0.860E-02 0.255E+00   -.400E-01 0.217E-01 0.745E-01
   0.484E+03 0.491E+03 0.282E+01   -.484E+03 -.491E+03 -.288E+01   -.164E+00 -.146E+00 -.200E-01   0.571E-02 0.524E-01 0.842E-01
   0.484E+03 -.488E+03 0.978E+01   -.484E+03 0.488E+03 -.981E+01   -.882E-01 0.103E+00 -.567E-01   -.264E-01 0.540E-01 0.802E-01
   -.492E+03 -.487E+03 0.107E+02   0.492E+03 0.487E+03 -.107E+02   0.923E-01 0.113E+00 -.816E-01   -.562E-01 0.187E-01 0.678E-01
 -----------------------------------------------------------------------------------------------
   -.320E+00 0.302E+00 0.282E+01   -.568E-13 0.119E-11 0.242E-11   0.617E+00 -.750E+00 -.393E+01   -.293E+00 0.438E+00 0.112E+01
 
 
 POSITION                                       TOTAL-FORCE (eV/Angst)
 -----------------------------------------------------------------------------------
     13.00862     10.33185      8.99973         0.002263      0.006877      0.000107
     10.33981     12.99763      8.98976         0.001235      0.000631      0.001909
     10.30841      7.69804      8.98577        -0.005301      0.004654      0.000386
      5.01438     10.26839      9.00851         0.003470     -0.002819      0.004088
      7.69100     12.99570      9.00292         0.000792     -0.003298      0.005567
      9.01145      8.94509      7.00975        -0.002444      0.004009     -0.006902
      5.04958      7.62300      8.99666        -0.001101     -0.001039     -0.003524
      7.62871      5.04387      9.00412        -0.006480     -0.003478     -0.004999
     12.96150      7.68362      9.01457         0.002289      0.004532      0.005805
     10.27657      5.05414      9.01785        -0.006683     -0.000706      0.003003
     11.91056      9.03461     11.10549         0.000151      0.008317      0.001602
      6.10872      8.96512     11.08834         0.002461     -0.001218     -0.001901
      9.02754     11.90552     11.06529         0.003652     -0.002976     -0.000551
      8.95871      6.10491     11.13310        -0.007699     -0.001057      0.000801
     11.70181     11.70044     10.94198         0.007204      0.010746     -0.001869
      6.36059     11.62862     10.92840         0.006448     -0.003198      0.000057
      6.29914      6.30089     10.98204        -0.001930     -0.002560      0.000744
     11.61589      6.37692     10.96533        -0.006559      0.007058      0.003715
     11.91905      9.00103      6.90935         0.006153     -0.000556     -0.001154
      6.11749      8.95593      6.92510        -0.001818      0.001408      0.000401
      9.00650     11.91306      6.94334        -0.004612     -0.007278     -0.002044
      8.96286      6.11439      6.89492        -0.001377     -0.004661     -0.006041
     11.73148     11.69281      7.08023         0.001155      0.003306      0.001349
      6.29743     11.65155      7.10947         0.000962     -0.000216      0.005640
      6.30483      6.27775      7.00438        -0.001926     -0.002944     -0.001809
     11.62849      6.32951      7.05158        -0.001688     -0.001105      0.006467
     10.38159     10.39841     12.85029         0.009539      0.006455     -0.000869
      7.69228     10.32656     12.80205         0.004829     -0.005290     -0.003810
      7.61978      7.63847     12.87514        -0.003832     -0.007060      0.003044
     10.31692      7.70229     12.85227        -0.010883      0.008434      0.004361
     10.35515     10.39145      5.21592        -0.000399      0.000250      0.001604
      7.66371     10.36969      5.22876        -0.000680      0.002310      0.002108
      7.58257      7.63054      5.06091         0.001552      0.002538     -0.001158
     10.40180      7.64829      5.07626         0.001623     -0.001638      0.004386
      9.01655      9.00072     10.92411         0.004271     -0.003591     -0.012307
      7.68190      7.66776      8.98561         0.001697     -0.003772     -0.001529
      7.70196     10.30201      8.98695         0.000274     -0.005380     -0.003383
     10.34470     10.32945      8.98374         0.003395     -0.005684     -0.003295
 -----------------------------------------------------------------------------------
    total drift:                                0.004227     -0.009730      0.008449


--------------------------------------------------------------------------------------------------------



  FREE ENERGIE OF THE ION-ELECTRON SYSTEM (eV)
  ---------------------------------------------------
  free  energy   TOTEN  =      -182.94677864 eV

  energy  without entropy=     -183.03314127  energy(sigma->0) =     -182.97556618
 
 d Force =-0.2838545E-16[-0.142E-16,-0.426E-16]  d Energy =-0.2081191E-04 0.208E-04
 d Force =-0.8130982E-11[-0.813E-11,-0.813E-11]  d Ewald  = 0.0000000E+00-0.146E-10


--------------------------------------------------------------------------------------------------------


    POTLOK:  cpu time    2.3546: real time    2.3872


--------------------------------------------------------------------------------------------------------


 stress matrix after NEB project (eV)
      0.00000      0.00000      0.00000
      0.00000      0.00000      0.00000
      0.00000      0.00000      0.00000
  FORCES: max atom, RMS     0.014443    0.007415
  FORCE total and by dimension    0.045709    0.012307
  Stress total and by dimension    0.000000    0.000000
