<?xml version="1.0" encoding="ISO-8859-1"?>
<modeling>
 <generator>
  <i name="program" type="string">vasp </i>
  <i name="version" type="string">5.4.1  </i>
  <i name="subversion" type="string">24Jun15 (build Jan 06 2016 13:19:48) gamma-only                       parallel </i>
  <i name="platform" type="string">IFC91_ompi </i>
  <i name="date" type="string">2016 02 18 </i>
  <i name="time" type="string">19:41:53 </i>
 </generator>
 <incar>
  <i type="string" name="SYSTEM"> Pt cube particle</i>
  <i type="string" name="PREC">normal</i>
  <i type="int" name="IALGO">    48</i>
  <i type="int" name="IBRION">     2</i>
  <i name="EDIFF">      0.00010000</i>
  <i name="EDIFFG">     -0.00500000</i>
  <i type="int" name="NSW">   200</i>
  <i type="int" name="ISIF">     0</i>
  <i type="int" name="ISYM">     0</i>
  <i name="ENMAX">    274.00000000</i>
  <i name="POTIM">      0.05000000</i>
  <i type="string" name="LREAL">Auto</i>
  <i type="logical" name="LPLANE"> T  </i>
  <i type="logical" name="LWAVE"> F  </i>
  <i type="logical" name="LCHARG"> F  </i>
  <v type="int" name="KPOINT_BSE">    -1     0     0     0</v>
 </incar>
 <kpoints>
  <generation param="Monkhorst-Pack">
   <v type="int" name="divisions">       1        1        1 </v>
   <v name="usershift">      0.00000000       0.00000000       0.00000000 </v>
   <v name="genvec1">      1.00000000       0.00000000       0.00000000 </v>
   <v name="genvec2">      0.00000000       1.00000000       0.00000000 </v>
   <v name="genvec3">      0.00000000       0.00000000       1.00000000 </v>
   <v name="shift">      0.00000000       0.00000000       0.00000000 </v>
  </generation>
  <varray name="kpointlist" >
   <v>       0.00000000       0.00000000       0.00000000 </v>
  </varray>
  <varray name="weights" >
   <v>       1.00000000 </v>
  </varray>
 </kpoints>
 <parameters>
  <separator name="general" >
   <i type="string" name="SYSTEM">Pt cube particle</i>
   <i type="logical" name="LCOMPAT"> F  </i>
  </separator>
  <separator name="electronic" >
   <i type="string" name="PREC">normal</i>
   <i name="ENMAX">    274.00000000</i>
   <i name="ENAUG">    416.23000000</i>
   <i name="EDIFF">      0.00010000</i>
   <i type="int" name="IALGO">    48</i>
   <i type="int" name="IWAVPR">    11</i>
   <i type="int" name="NBANDS">   228</i>
   <i name="NELECT">    380.00000000</i>
   <i type="int" name="TURBO">     0</i>
   <i type="int" name="IRESTART">     0</i>
   <i type="int" name="NREBOOT">     0</i>
   <i type="int" name="NMIN">     0</i>
   <i name="EREF">      0.00000000</i>
   <separator name="electronic smearing" >
    <i type="int" name="ISMEAR">     1</i>
    <i name="SIGMA">      0.20000000</i>
    <i name="KSPACING">      0.50000000</i>
    <i type="logical" name="KGAMMA"> T  </i>
   </separator>
   <separator name="electronic projectors" >
    <i type="logical" name="LREAL"> T  </i>
    <v name="ROPT">     -0.00050000     -0.00050000</v>
    <i type="int" name="LMAXPAW">  -100</i>
    <i type="int" name="LMAXMIX">     2</i>
    <i type="logical" name="NLSPLINE"> F  </i>
   </separator>
   <separator name="electronic startup" >
    <i type="int" name="ISTART">     0</i>
    <i type="int" name="ICHARG">     2</i>
    <i type="int" name="INIWAV">     1</i>
   </separator>
   <separator name="electronic spin" >
    <i type="int" name="ISPIN">     1</i>
    <i type="logical" name="LNONCOLLINEAR"> F  </i>
    <v name="MAGMOM">      1.00000000      1.00000000      1.00000000      1.00000000      1.00000000      1.00000000      1.00000000      1.00000000      1.00000000      1.00000000      1.00000000      1.00000000      1.00000000      1.00000000      1.00000000      1.00000000      1.00000000      1.00000000      1.00000000      1.00000000
      1.00000000      1.00000000      1.00000000      1.00000000      1.00000000      1.00000000      1.00000000      1.00000000      1.00000000      1.00000000      1.00000000      1.00000000      1.00000000      1.00000000      1.00000000      1.00000000      1.00000000      1.00000000</v>
    <i name="NUPDOWN">     -1.00000000</i>
    <i type="logical" name="LSORBIT"> F  </i>
    <v name="SAXIS">      0.00000000      0.00000000      1.00000000</v>
    <i type="logical" name="LSPIRAL"> F  </i>
    <v name="QSPIRAL">      0.00000000      0.00000000      0.00000000</v>
    <i type="logical" name="LZEROZ"> F  </i>
   </separator>
   <separator name="electronic exchange-correlation" >
    <i type="logical" name="LASPH"> F  </i>
    <i type="logical" name="LMETAGGA"> F  </i>
   </separator>
   <separator name="electronic convergence" >
    <i type="int" name="NELM">    60</i>
    <i type="int" name="NELMDL">   -12</i>
    <i type="int" name="NELMIN">     2</i>
    <i name="ENINI">    274.00000000</i>
    <separator name="electronic convergence detail" >
     <i type="logical" name="LDIAG"> T  </i>
     <i type="logical" name="LSUBROT"> F  </i>
     <i name="WEIMIN">      0.00100000</i>
     <i name="EBREAK">      0.00000011</i>
     <i name="DEPER">      0.30000000</i>
     <i type="int" name="NRMM">     4</i>
     <i name="TIME">      0.40000000</i>
    </separator>
   </separator>
   <separator name="electronic mixer" >
    <i name="AMIX">      0.40000000</i>
    <i name="BMIX">      1.00000000</i>
    <i name="AMIN">      0.10000000</i>
    <i name="AMIX_MAG">      1.60000000</i>
    <i name="BMIX_MAG">      1.00000000</i>
    <separator name="electronic mixer details" >
     <i type="int" name="IMIX">     4</i>
     <i type="logical" name="MIXFIRST"> F  </i>
     <i type="int" name="MAXMIX">   -45</i>
     <i name="WC">    100.00000000</i>
     <i type="int" name="INIMIX">     1</i>
     <i type="int" name="MIXPRE">     1</i>
     <i type="int" name="MREMOVE">     5</i>
    </separator>
   </separator>
   <separator name="electronic dipolcorrection" >
    <i type="logical" name="LDIPOL"> F  </i>
    <i type="logical" name="LMONO"> F  </i>
    <i type="int" name="IDIPOL">     0</i>
    <i name="EPSILON">      1.00000000</i>
    <v name="DIPOL">   -100.00000000   -100.00000000   -100.00000000</v>
    <i name="EFIELD">      0.00000000</i>
   </separator>
  </separator>
  <separator name="grids" >
   <i type="int" name="NGX">    80</i>
   <i type="int" name="NGY">    80</i>
   <i type="int" name="NGZ">    80</i>
   <i type="int" name="NGXF">   160</i>
   <i type="int" name="NGYF">   160</i>
   <i type="int" name="NGZF">   160</i>
   <i type="logical" name="ADDGRID"> F  </i>
  </separator>
  <separator name="ionic" >
   <i type="int" name="NSW">   200</i>
   <i type="int" name="IBRION">     2</i>
   <i type="int" name="ISIF">     0</i>
   <i name="PSTRESS">      0.00000000</i>
   <i name="EDIFFG">     -0.00500000</i>
   <i type="int" name="NFREE">     1</i>
   <i name="POTIM">      0.05000000</i>
   <i name="SMASS">     -3.00000000</i>
   <i name="SCALEE">      1.00000000</i>
  </separator>
  <separator name="ionic md" >
   <i name="TEBEG">      0.00010000</i>
   <i name="TEEND">      0.00010000</i>
   <i type="int" name="NBLOCK">     1</i>
   <i type="int" name="KBLOCK">   200</i>
   <i type="int" name="NPACO">   256</i>
   <i name="APACO">     16.00000000</i>
  </separator>
  <separator name="symmetry" >
   <i type="int" name="ISYM">     0</i>
   <i name="SYMPREC">      0.00001000</i>
  </separator>
  <separator name="dos" >
   <i type="logical" name="LORBIT"> F  </i>
   <v name="RWIGS">     -1.00000000     -1.00000000</v>
   <i type="int" name="NEDOS">   301</i>
   <i name="EMIN">     10.00000000</i>
   <i name="EMAX">    -10.00000000</i>
   <i name="EFERMI">      0.00000000</i>
  </separator>
  <separator name="writing" >
   <i type="int" name="NWRITE">     2</i>
   <i type="logical" name="LWAVE"> F  </i>
   <i type="logical" name="LCHARG"> F  </i>
   <i type="logical" name="LPARD"> F  </i>
   <i type="logical" name="LVTOT"> F  </i>
   <i type="logical" name="LVHAR"> F  </i>
   <i type="logical" name="LELF"> F  </i>
   <i type="logical" name="LOPTICS"> F  </i>
   <v name="STM">      0.00000000      0.00000000      0.00000000      0.00000000      0.00000000      0.00000000      0.00000000</v>
  </separator>
  <separator name="performance" >
   <i type="int" name="NPAR">     2</i>
   <i type="int" name="NSIM">     4</i>
   <i type="int" name="NBLK">    -1</i>
   <i type="logical" name="LPLANE"> T  </i>
   <i type="logical" name="LSCALAPACK"> T  </i>
   <i type="logical" name="LSCAAWARE"> F  </i>
   <i type="logical" name="LSCALU"> F  </i>
   <i type="logical" name="LASYNC"> F  </i>
   <i type="logical" name="LORBITALREAL"> F  </i>
  </separator>
  <separator name="miscellaneous" >
   <i type="int" name="IDIOT">     3</i>
   <i type="logical" name="LMUSIC"> F  </i>
   <v name="POMASS">    195.08000000    106.42000000</v>
   <v name="DARWINR">      0.00000000      0.00000000</v>
   <v name="DARWINV">      1.00000000      1.00000000</v>
   <i type="logical" name="LCORR"> T  </i>
  </separator>
  <i type="logical" name="GGA_COMPAT"> T  </i>
  <i type="logical" name="LBERRY"> F  </i>
  <i type="int" name="ICORELEVEL">     0</i>
  <i type="logical" name="LDAU"> F  </i>
  <i type="int" name="I_CONSTRAINED_M">     0</i>
  <separator name="electronic exchange-correlation" >
   <i type="string" name="GGA">--</i>
   <i type="int" name="VOSKOWN">     0</i>
   <i type="logical" name="LHFCALC"> F  </i>
   <i type="string" name="PRECFOCK"></i>
   <i type="logical" name="LSYMGRAD"> F  </i>
   <i type="logical" name="LHFONE"> F  </i>
   <i type="logical" name="LRHFCALC"> F  </i>
   <i type="logical" name="LTHOMAS"> F  </i>
   <i type="logical" name="LMODELHF"> F  </i>
   <i name="ENCUT4O">     -1.00000000</i>
   <i type="int" name="EXXOEP">     0</i>
   <i type="int" name="FOURORBIT">     0</i>
   <i name="AEXX">      0.00000000</i>
   <i name="HFALPHA">      0.00000000</i>
   <i name="MCALPHA">      0.00000000</i>
   <i name="ALDAX">      1.00000000</i>
   <i name="AGGAX">      1.00000000</i>
   <i name="ALDAC">      1.00000000</i>
   <i name="AGGAC">      1.00000000</i>
   <i type="int" name="NKREDX">     1</i>
   <i type="int" name="NKREDY">     1</i>
   <i type="int" name="NKREDZ">     1</i>
   <i type="logical" name="SHIFTRED"> F  </i>
   <i type="logical" name="ODDONLY"> F  </i>
   <i type="logical" name="EVENONLY"> F  </i>
   <i type="int" name="LMAXFOCK">     0</i>
   <i type="int" name="NMAXFOCKAE">     0</i>
   <i type="logical" name="LFOCKAEDFT"> F  </i>
   <i name="HFSCREEN">      0.00000000</i>
   <i name="HFSCREENC">      0.00000000</i>
   <i type="int" name="NBANDSGWLOW">     0</i>
  </separator>
  <separator name="vdW DFT" >
   <i type="logical" name="LUSE_VDW"> F  </i>
   <i name="Zab_VDW">     -0.84910000</i>
   <i name="PARAM1">      0.12340000</i>
   <i name="PARAM2">      1.00000000</i>
   <i name="PARAM3">      0.00000000</i>
  </separator>
  <separator name="model GW" >
   <i type="int" name="MODEL_GW">     0</i>
   <i name="MODEL_EPS0">     92.08421053</i>
   <i name="MODEL_ALPHA">      1.00000000</i>
  </separator>
  <separator name="linear response parameters" >
   <i type="logical" name="LEPSILON"> F  </i>
   <i type="logical" name="LRPA"> F  </i>
   <i type="logical" name="LNABLA"> F  </i>
   <i type="logical" name="LVEL"> F  </i>
   <i type="int" name="KINTER">     0</i>
   <i name="CSHIFT">      0.10000000</i>
   <i name="OMEGAMAX">     -1.00000000</i>
   <i name="DEG_THRESHOLD">      0.00200000</i>
  </separator>
  <separator name="orbital magnetization" >
   <i type="logical" name="NUCIND"> F  </i>
   <v name="MAGPOS">      0.00000000      0.00000000      0.00000000</v>
   <i type="logical" name="LNICSALL"> T  </i>
   <i type="logical" name="ORBITALMAG"> F  </i>
   <i type="logical" name="LMAGBLOCH"> F  </i>
   <i type="logical" name="LCHIMAG"> F  </i>
   <i type="logical" name="LGAUGE"> T  </i>
   <i type="int" name="MAGATOM">     0</i>
   <v name="MAGDIPOL">      0.00000000      0.00000000      0.00000000</v>
   <v name="AVECCONST">      0.00000000      0.00000000      0.00000000</v>
  </separator>
  <separator name="response functions" >
   <i type="logical" name="LADDER"> F  </i>
   <i type="logical" name="LFXC"> F  </i>
   <i type="logical" name="LHARTREE"> T  </i>
   <i type="int" name="IBSE">     0</i>
   <v type="int" name="KPOINT">    -1     0     0     0</v>
   <i type="logical" name="LTCTE"> F  </i>
   <i type="logical" name="LTETE"> F  </i>
   <i type="logical" name="LTRIPLET"> F  </i>
   <i type="logical" name="LFXCEPS"> F  </i>
   <i type="logical" name="LFXHEG"> F  </i>
   <i type="int" name="NATURALO">     0</i>
   <i type="logical" name="L2ORDER"> F  </i>
   <i type="logical" name="LUSEW"> F  </i>
   <i name="ENCUTGW">     -2.00000000</i>
   <i name="ENCUTGWSOFT">     -2.00000000</i>
   <i name="ENCUTLF">     -1.00000000</i>
   <i type="int" name="LMAXMP2">    -1</i>
   <i name="SCISSOR">      0.00000000</i>
   <i type="int" name="NOMEGA">     0</i>
   <i type="int" name="NOMEGAR">     0</i>
   <i type="int" name="NBANDSGW">    -1</i>
   <i type="int" name="NBANDSO">    -1</i>
   <i type="int" name="NBANDSV">    -1</i>
   <i type="int" name="NELM">     1</i>
   <i type="int" name="NELMHF">     1</i>
   <i type="int" name="DIM">     3</i>
   <i type="int" name="ANTIRES">     0</i>
   <i name="OMEGAMAX">    -30.00000000</i>
   <i name="OMEGAMIN">    -30.00000000</i>
   <i name="OMEGATL">   -200.00000000</i>
   <i type="int" name="OMEGAGRID">     0</i>
   <i name="CSHIFT">     -0.10000000</i>
   <i type="logical" name="SELFENERGY"> F  </i>
   <i type="logical" name="LSPECTRAL"> F  </i>
   <i type="logical" name="LSPECTRALGW"> F  </i>
   <i type="logical" name="LSINGLES"> F  </i>
   <i type="logical" name="LFERMIGW"> F  </i>
   <i type="logical" name="ODDONLYGW"> F  </i>
   <i type="logical" name="EVENONLYGW"> F  </i>
   <i type="int" name="NKREDLFX">     1</i>
   <i type="int" name="NKREDLFY">     1</i>
   <i type="int" name="NKREDLFZ">     1</i>
   <i type="int" name="MAXMEM">  1800</i>
   <i type="int" name="TELESCOPE">     0</i>
   <i type="int" name="TAUPAR">     1</i>
   <i type="int" name="OMEGAPAR">    -1</i>
   <i name="LAMBDA">      1.00000000</i>
  </separator>
  <separator name="External order field" >
   <i name="OFIELD_KAPPA">      0.00000000</i>
   <v name="OFIELD_K">      0.00000000      0.00000000      0.00000000</v>
   <i name="OFIELD_Q6_NEAR">      0.00000000</i>
   <i name="OFIELD_Q6_FAR">      0.00000000</i>
   <i name="OFIELD_A">      0.00000000</i>
  </separator>
  <separator name="solvation model" >
   <i type="logical" name="LSOL"> F  </i>
  </separator>
 </parameters>
 <atominfo>
  <atoms>      38 </atoms>
  <types>       2 </types>
  <array name="atoms" >
   <dimension dim="1">ion</dimension>
   <field type="string">element</field>
   <field type="int">atomtype</field>
   <set>
    <rc><c>Pt</c><c>   1</c></rc>
    <rc><c>Pt</c><c>   1</c></rc>
    <rc><c>Pt</c><c>   1</c></rc>
    <rc><c>Pt</c><c>   1</c></rc>
    <rc><c>Pt</c><c>   1</c></rc>
    <rc><c>Pt</c><c>   1</c></rc>
    <rc><c>Pt</c><c>   1</c></rc>
    <rc><c>Pt</c><c>   1</c></rc>
    <rc><c>Pt</c><c>   1</c></rc>
    <rc><c>Pt</c><c>   1</c></rc>
    <rc><c>Pt</c><c>   1</c></rc>
    <rc><c>Pt</c><c>   1</c></rc>
    <rc><c>Pt</c><c>   1</c></rc>
    <rc><c>Pt</c><c>   1</c></rc>
    <rc><c>Pt</c><c>   1</c></rc>
    <rc><c>Pt</c><c>   1</c></rc>
    <rc><c>Pt</c><c>   1</c></rc>
    <rc><c>Pt</c><c>   1</c></rc>
    <rc><c>Pt</c><c>   1</c></rc>
    <rc><c>Pt</c><c>   1</c></rc>
    <rc><c>Pt</c><c>   1</c></rc>
    <rc><c>Pt</c><c>   1</c></rc>
    <rc><c>Pt</c><c>   1</c></rc>
    <rc><c>Pt</c><c>   1</c></rc>
    <rc><c>Pt</c><c>   1</c></rc>
    <rc><c>Pt</c><c>   1</c></rc>
    <rc><c>Pt</c><c>   1</c></rc>
    <rc><c>Pt</c><c>   1</c></rc>
    <rc><c>Pt</c><c>   1</c></rc>
    <rc><c>Pt</c><c>   1</c></rc>
    <rc><c>Pt</c><c>   1</c></rc>
    <rc><c>Pt</c><c>   1</c></rc>
    <rc><c>Pd</c><c>   2</c></rc>
    <rc><c>Pd</c><c>   2</c></rc>
    <rc><c>Pd</c><c>   2</c></rc>
    <rc><c>Pd</c><c>   2</c></rc>
    <rc><c>Pd</c><c>   2</c></rc>
    <rc><c>Pd</c><c>   2</c></rc>
   </set>
  </array>
  <array name="atomtypes" >
   <dimension dim="1">type</dimension>
   <field type="int">atomspertype</field>
   <field type="string">element</field>
   <field>mass</field>
   <field>valence</field>
   <field type="string">pseudopotential</field>
   <set>
    <rc><c>  32</c><c>Pt</c><c>    195.08000000</c><c>     10.00000000</c><c>  PAW Pt                                </c></rc>
    <rc><c>   6</c><c>Pd</c><c>    106.42000000</c><c>     10.00000000</c><c>  PAW Pd                                </c></rc>
   </set>
  </array>
 </atominfo>
 <structure name="initialpos" >
  <crystal>
   <varray name="basis" >
    <v>      18.00000000       0.00000000       0.00000000 </v>
    <v>       0.00000000      18.00000000       0.00000000 </v>
    <v>       0.00000000       0.00000000      18.00000000 </v>
   </varray>
   <i name="volume">   5832.00000000 </i>
   <varray name="rec_basis" >
    <v>       0.05555556       0.00000000       0.00000000 </v>
    <v>       0.00000000       0.05555556       0.00000000 </v>
    <v>       0.00000000       0.00000000       0.05555556 </v>
   </varray>
  </crystal>
  <varray name="positions" >
   <v>       0.72415987       0.57367709       0.49999884 </v>
   <v>       0.57367748       0.72416476       0.49999896 </v>
   <v>       0.57433976       0.42564820       0.49999771 </v>
   <v>       0.27584718       0.57366508       0.50000102 </v>
   <v>       0.42633392       0.72415229       0.50000050 </v>
   <v>       0.49999163       0.49999846       0.39510135 </v>
   <v>       0.27584506       0.42633293       0.50000053 </v>
   <v>       0.42633278       0.27584919       0.49999961 </v>
   <v>       0.72415965       0.42632488       0.49999934 </v>
   <v>       0.57367347       0.27583777       0.49999958 </v>
   <v>       0.66139785       0.50000291       0.61403403 </v>
   <v>       0.33859673       0.49999821       0.61404334 </v>
   <v>       0.50000485       0.66140186       0.61404044 </v>
   <v>       0.49999876       0.33859700       0.61404026 </v>
   <v>       0.64886196       0.64886231       0.60622248 </v>
   <v>       0.35115009       0.64885073       0.60622329 </v>
   <v>       0.35114542       0.35114654       0.60622383 </v>
   <v>       0.64885517       0.35114461       0.60622041 </v>
   <v>       0.66139838       0.49999881       0.38596471 </v>
   <v>       0.33859854       0.49999905       0.38596026 </v>
   <v>       0.50000385       0.66140334       0.38595872 </v>
   <v>       0.50000369       0.33859956       0.38596150 </v>
   <v>       0.64886010       0.64885942       0.39377423 </v>
   <v>       0.35115184       0.64884871       0.39377816 </v>
   <v>       0.35115095       0.35115082       0.39377660 </v>
   <v>       0.64885984       0.35114035       0.39377625 </v>
   <v>       0.57516716       0.57516805       0.71035430 </v>
   <v>       0.42483370       0.57516629       0.71035524 </v>
   <v>       0.42482849       0.42483027       0.71035654 </v>
   <v>       0.57516215       0.42483732       0.71034915 </v>
   <v>       0.57516540       0.57516346       0.28964734 </v>
   <v>       0.42483436       0.57516557       0.28964991 </v>
   <v>       0.42483466       0.42483341       0.28964981 </v>
   <v>       0.57516653       0.42483369       0.28964740 </v>
   <v>       0.49998814       0.49999905       0.60489762 </v>
   <v>       0.42563785       0.42564770       0.49999960 </v>
   <v>       0.42564235       0.57434859       0.49999975 </v>
   <v>       0.57434040       0.57435174       0.49999737 </v>
  </varray>
  <varray name="selective"  type="logical" >
   <v type="logical" >  T  T  T </v>
   <v type="logical" >  T  T  T </v>
   <v type="logical" >  T  T  T </v>
   <v type="logical" >  T  T  T </v>
   <v type="logical" >  T  T  T </v>
   <v type="logical" >  T  T  T </v>
   <v type="logical" >  T  T  T </v>
   <v type="logical" >  T  T  T </v>
   <v type="logical" >  T  T  T </v>
   <v type="logical" >  T  T  T </v>
   <v type="logical" >  T  T  T </v>
   <v type="logical" >  T  T  T </v>
   <v type="logical" >  T  T  T </v>
   <v type="logical" >  T  T  T </v>
   <v type="logical" >  T  T  T </v>
   <v type="logical" >  T  T  T </v>
   <v type="logical" >  T  T  T </v>
   <v type="logical" >  T  T  T </v>
   <v type="logical" >  T  T  T </v>
   <v type="logical" >  T  T  T </v>
   <v type="logical" >  T  T  T </v>
   <v type="logical" >  T  T  T </v>
   <v type="logical" >  T  T  T </v>
   <v type="logical" >  T  T  T </v>
   <v type="logical" >  T  T  T </v>
   <v type="logical" >  T  T  T </v>
   <v type="logical" >  T  T  T </v>
   <v type="logical" >  T  T  T </v>
   <v type="logical" >  T  T  T </v>
   <v type="logical" >  T  T  T </v>
   <v type="logical" >  T  T  T </v>
   <v type="logical" >  T  T  T </v>
   <v type="logical" >  T  T  T </v>
   <v type="logical" >  T  T  T </v>
   <v type="logical" >  T  T  T </v>
   <v type="logical" >  T  T  T </v>
   <v type="logical" >  T  T  T </v>
   <v type="logical" >  T  T  T </v>
  </varray>
  <nose>
   <v>      -3.00000000       0.00000000       0.00010000       0.00010000 </v>
  </nose>
 </structure>
 <calculation>
  <scstep>
   <time name="diag">    4.14    4.16</time>
   <time name="diis">    9.46    9.49</time>
   <time name="orth">    0.31    0.32</time>
   <time name="total">   16.28   16.35</time>
   <energy>
    <i name="alphaZ">    355.51581029 </i>
    <i name="ewald">  67873.47708066 </i>
    <i name="hartreedc"> -95272.93594921 </i>
    <i name="XCdc">   -102.25542243 </i>
    <i name="pawpsdc">  22415.49745108 </i>
    <i name="pawaedc"> -21132.28767422 </i>
    <i name="eentropy">     -0.08488851 </i>
    <i name="bandstr">   2378.33281683 </i>
    <i name="atom">  28224.09016519 </i>
    <i name="e_fr_energy">   4739.34938967 </i>
    <i name="e_wo_entrp">   4739.43427818 </i>
    <i name="e_0_energy">   4739.37768584 </i>
   </energy>
  </scstep>
  <scstep>
   <time name="diag">    4.12    4.14</time>
   <time name="diis">    9.40    9.45</time>
   <time name="orth">    0.32    0.32</time>
   <time name="total">   13.84   13.91</time>
   <energy>
    <i name="e_fr_energy">   2699.08988696 </i>
    <i name="e_wo_entrp">   2698.94621139 </i>
    <i name="e_0_energy">   2699.04199510 </i>
   </energy>
  </scstep>
  <scstep>
   <time name="diag">    4.12    4.13</time>
   <time name="diis">    9.46    9.50</time>
   <time name="orth">    0.32    0.32</time>
   <time name="total">   13.90   13.96</time>
   <energy>
    <i name="e_fr_energy">   1764.58680936 </i>
    <i name="e_wo_entrp">   1764.66112529 </i>
    <i name="e_0_energy">   1764.61158134 </i>
   </energy>
  </scstep>
  <scstep>
   <time name="diag">    4.11    4.12</time>
   <time name="diis">    9.41    9.45</time>
   <time name="orth">    0.32    0.32</time>
   <time name="total">   13.84   13.90</time>
   <energy>
    <i name="e_fr_energy">   1037.15883529 </i>
    <i name="e_wo_entrp">   1037.13905174 </i>
    <i name="e_0_energy">   1037.15224077 </i>
   </energy>
  </scstep>
  <scstep>
   <time name="diag">    4.11    4.13</time>
   <time name="diis">    9.46    9.50</time>
   <time name="orth">    0.31    0.31</time>
   <time name="total">   13.88   13.94</time>
   <energy>
    <i name="e_fr_energy">    587.82236172 </i>
    <i name="e_wo_entrp">    587.76518909 </i>
    <i name="e_0_energy">    587.80330418 </i>
   </energy>
  </scstep>
  <scstep>
   <time name="diag">    4.20    4.21</time>
   <time name="diis">    9.46    9.49</time>
   <time name="orth">    0.32    0.32</time>
   <time name="total">   13.98   14.03</time>
   <energy>
    <i name="e_fr_energy">    273.33747701 </i>
    <i name="e_wo_entrp">    273.16052294 </i>
    <i name="e_0_energy">    273.27849232 </i>
   </energy>
  </scstep>
  <scstep>
   <time name="diag">    4.11    4.12</time>
   <time name="diis">    9.44    9.49</time>
   <time name="orth">    0.32    0.32</time>
   <time name="total">   13.86   13.94</time>
   <energy>
    <i name="e_fr_energy">    104.81231233 </i>
    <i name="e_wo_entrp">    104.80867322 </i>
    <i name="e_0_energy">    104.81109929 </i>
   </energy>
  </scstep>
  <scstep>
   <time name="diag">    4.11    4.12</time>
   <time name="diis">    9.43    9.47</time>
   <time name="orth">    0.31    0.31</time>
   <time name="total">   13.86   13.91</time>
   <energy>
    <i name="e_fr_energy">    -20.34661621 </i>
    <i name="e_wo_entrp">    -20.42661245 </i>
    <i name="e_0_energy">    -20.37328162 </i>
   </energy>
  </scstep>
  <scstep>
   <time name="diag">    4.12    4.14</time>
   <time name="diis">   24.00   24.11</time>
   <time name="orth">    0.31    0.31</time>
   <time name="total">   28.43   28.56</time>
   <energy>
    <i name="e_fr_energy">   -120.33071264 </i>
    <i name="e_wo_entrp">   -120.28440405 </i>
    <i name="e_0_energy">   -120.31527644 </i>
   </energy>
  </scstep>
  <scstep>
   <time name="diag">    4.12    4.13</time>
   <time name="diis">   27.26   27.40</time>
   <time name="orth">    0.31    0.31</time>
   <time name="total">   31.69   31.85</time>
   <energy>
    <i name="e_fr_energy">   -160.96533212 </i>
    <i name="e_wo_entrp">   -160.99070353 </i>
    <i name="e_0_energy">   -160.97378926 </i>
   </energy>
  </scstep>
  <scstep>
   <time name="diag">    4.12    4.14</time>
   <time name="diis">   28.44   28.57</time>
   <time name="orth">    0.32    0.32</time>
   <time name="total">   32.88   33.03</time>
   <energy>
    <i name="e_fr_energy">   -180.55347853 </i>
    <i name="e_wo_entrp">   -180.40746024 </i>
    <i name="e_0_energy">   -180.50480576 </i>
   </energy>
  </scstep>
  <scstep>
   <time name="diag">    4.09    4.11</time>
   <time name="diis">   28.36   28.50</time>
   <time name="orth">    0.32    0.32</time>
   <time name="total">   35.03   35.20</time>
   <energy>
    <i name="e_fr_energy">   -188.08166600 </i>
    <i name="e_wo_entrp">   -188.04607410 </i>
    <i name="e_0_energy">   -188.06980203 </i>
   </energy>
  </scstep>
  <scstep>
   <time name="diag">    4.20    4.21</time>
   <time name="diis">   20.41   20.50</time>
   <time name="orth">    0.31    0.31</time>
   <time name="total">   29.39   29.52</time>
   <energy>
    <i name="e_fr_energy">   -184.31029006 </i>
    <i name="e_wo_entrp">   -184.36208583 </i>
    <i name="e_0_energy">   -184.32755532 </i>
   </energy>
  </scstep>
  <scstep>
   <time name="diag">    4.10    4.13</time>
   <time name="diis">   19.49   19.59</time>
   <time name="orth">    0.32    0.32</time>
   <time name="total">   28.37   28.52</time>
   <energy>
    <i name="e_fr_energy">   -181.91952635 </i>
    <i name="e_wo_entrp">   -181.91508479 </i>
    <i name="e_0_energy">   -181.91804583 </i>
   </energy>
  </scstep>
  <scstep>
   <time name="diag">    4.14    4.17</time>
   <time name="diis">   21.47   21.55</time>
   <time name="orth">    0.31    0.31</time>
   <time name="total">   30.34   30.47</time>
   <energy>
    <i name="e_fr_energy">   -181.18041060 </i>
    <i name="e_wo_entrp">   -180.99529210 </i>
    <i name="e_0_energy">   -181.11870443 </i>
   </energy>
  </scstep>
  <scstep>
   <time name="diag">    4.13    4.15</time>
   <time name="diis">   21.83   21.94</time>
   <time name="orth">    0.32    0.32</time>
   <time name="total">   30.71   30.87</time>
   <energy>
    <i name="e_fr_energy">   -181.66618561 </i>
    <i name="e_wo_entrp">   -181.55355874 </i>
    <i name="e_0_energy">   -181.62864332 </i>
   </energy>
  </scstep>
  <scstep>
   <time name="diag">    4.15    4.17</time>
   <time name="diis">   22.43   22.52</time>
   <time name="orth">    0.32    0.32</time>
   <time name="total">   31.34   31.48</time>
   <energy>
    <i name="e_fr_energy">   -182.17154061 </i>
    <i name="e_wo_entrp">   -182.03237543 </i>
    <i name="e_0_energy">   -182.12515222 </i>
   </energy>
  </scstep>
  <scstep>
   <time name="diag">    4.08    4.11</time>
   <time name="diis">   21.87   21.99</time>
   <time name="orth">    0.32    0.32</time>
   <time name="total">   30.82   30.99</time>
   <energy>
    <i name="e_fr_energy">   -182.54107585 </i>
    <i name="e_wo_entrp">   -182.42399333 </i>
    <i name="e_0_energy">   -182.50204834 </i>
   </energy>
  </scstep>
  <scstep>
   <time name="diag">    4.14    4.16</time>
   <time name="diis">   21.94   22.03</time>
   <time name="orth">    0.32    0.32</time>
   <time name="total">   30.86   31.00</time>
   <energy>
    <i name="e_fr_energy">   -182.70802593 </i>
    <i name="e_wo_entrp">   -182.65792723 </i>
    <i name="e_0_energy">   -182.69132636 </i>
   </energy>
  </scstep>
  <scstep>
   <time name="diag">    4.08    4.12</time>
   <time name="diis">   21.74   21.84</time>
   <time name="orth">    0.31    0.31</time>
   <time name="total">   30.63   30.79</time>
   <energy>
    <i name="e_fr_energy">   -182.85120027 </i>
    <i name="e_wo_entrp">   -182.90147675 </i>
    <i name="e_0_energy">   -182.86795910 </i>
   </energy>
  </scstep>
  <scstep>
   <time name="diag">    4.16    4.19</time>
   <time name="diis">   20.02   20.10</time>
   <time name="orth">    0.32    0.32</time>
   <time name="total">   29.00   29.13</time>
   <energy>
    <i name="e_fr_energy">   -182.86025289 </i>
    <i name="e_wo_entrp">   -182.90134929 </i>
    <i name="e_0_energy">   -182.87395169 </i>
   </energy>
  </scstep>
  <scstep>
   <time name="diag">    4.10    4.13</time>
   <time name="diis">   19.65   19.73</time>
   <time name="orth">    0.32    0.32</time>
   <time name="total">   28.57   28.71</time>
   <energy>
    <i name="e_fr_energy">   -182.85554284 </i>
    <i name="e_wo_entrp">   -182.88299124 </i>
    <i name="e_0_energy">   -182.86469231 </i>
   </energy>
  </scstep>
  <scstep>
   <time name="diag">    4.09    4.11</time>
   <time name="diis">   19.35   19.44</time>
   <time name="orth">    0.32    0.32</time>
   <time name="total">   28.28   28.40</time>
   <energy>
    <i name="e_fr_energy">   -182.84348860 </i>
    <i name="e_wo_entrp">   -182.90706384 </i>
    <i name="e_0_energy">   -182.86468035 </i>
   </energy>
  </scstep>
  <scstep>
   <time name="diag">    4.10    4.11</time>
   <time name="diis">   19.01   19.11</time>
   <time name="orth">    0.31    0.31</time>
   <time name="total">   27.94   28.08</time>
   <energy>
    <i name="e_fr_energy">   -182.83170322 </i>
    <i name="e_wo_entrp">   -182.91443585 </i>
    <i name="e_0_energy">   -182.85928076 </i>
   </energy>
  </scstep>
  <scstep>
   <time name="diag">    4.16    4.17</time>
   <time name="diis">   19.01   19.11</time>
   <time name="orth">    0.32    0.32</time>
   <time name="total">   28.03   28.15</time>
   <energy>
    <i name="e_fr_energy">   -182.81824481 </i>
    <i name="e_wo_entrp">   -182.90327738 </i>
    <i name="e_0_energy">   -182.84658900 </i>
   </energy>
  </scstep>
  <scstep>
   <time name="diag">    4.09    4.10</time>
   <time name="diis">   18.65   18.75</time>
   <time name="orth">    0.32    0.32</time>
   <time name="total">   27.58   27.71</time>
   <energy>
    <i name="e_fr_energy">   -182.81011176 </i>
    <i name="e_wo_entrp">   -182.88426695 </i>
    <i name="e_0_energy">   -182.83483015 </i>
   </energy>
  </scstep>
  <scstep>
   <time name="diag">    4.11    4.13</time>
   <time name="diis">   18.50   18.59</time>
   <time name="orth">    0.32    0.32</time>
   <time name="total">   27.47   27.60</time>
   <energy>
    <i name="e_fr_energy">   -182.80574414 </i>
    <i name="e_wo_entrp">   -182.87282107 </i>
    <i name="e_0_energy">   -182.82810312 </i>
   </energy>
  </scstep>
  <scstep>
   <time name="diag">    4.07    4.09</time>
   <time name="diis">   18.51   18.60</time>
   <time name="orth">    0.32    0.32</time>
   <time name="total">   27.47   27.60</time>
   <energy>
    <i name="e_fr_energy">   -182.80406904 </i>
    <i name="e_wo_entrp">   -182.87198356 </i>
    <i name="e_0_energy">   -182.82670721 </i>
   </energy>
  </scstep>
  <scstep>
   <time name="diag">    4.09    4.10</time>
   <time name="diis">   16.82   16.89</time>
   <time name="orth">    0.32    0.32</time>
   <time name="total">   25.81   25.92</time>
   <energy>
    <i name="e_fr_energy">   -182.80413638 </i>
    <i name="e_wo_entrp">   -182.87491017 </i>
    <i name="e_0_energy">   -182.82772765 </i>
   </energy>
  </scstep>
  <scstep>
   <time name="diag">    4.04    4.06</time>
   <time name="diis">   13.90   13.95</time>
   <time name="orth">    0.31    0.32</time>
   <time name="total">   22.86   22.96</time>
   <energy>
    <i name="e_fr_energy">   -182.80505267 </i>
    <i name="e_wo_entrp">   -182.87992863 </i>
    <i name="e_0_energy">   -182.83001132 </i>
   </energy>
  </scstep>
  <scstep>
   <time name="diag">    4.08    4.10</time>
   <time name="diis">   12.26   12.32</time>
   <time name="orth">    0.32    0.32</time>
   <time name="total">   21.26   21.37</time>
   <energy>
    <i name="e_fr_energy">   -182.80689858 </i>
    <i name="e_wo_entrp">   -182.87842735 </i>
    <i name="e_0_energy">   -182.83074150 </i>
   </energy>
  </scstep>
  <scstep>
   <time name="diag">    4.17    4.18</time>
   <time name="diis">   12.64   12.69</time>
   <time name="orth">    0.32    0.32</time>
   <time name="total">   21.77   21.86</time>
   <energy>
    <i name="e_fr_energy">   -182.80995175 </i>
    <i name="e_wo_entrp">   -182.87894860 </i>
    <i name="e_0_energy">   -182.83295070 </i>
   </energy>
  </scstep>
  <scstep>
   <time name="diag">    4.06    4.08</time>
   <time name="diis">   12.83   12.90</time>
   <time name="orth">    0.32    0.32</time>
   <time name="total">   21.86   21.96</time>
   <energy>
    <i name="e_fr_energy">   -182.81345797 </i>
    <i name="e_wo_entrp">   -182.88523789 </i>
    <i name="e_0_energy">   -182.83738461 </i>
   </energy>
  </scstep>
  <scstep>
   <time name="diag">    4.05    4.08</time>
   <time name="diis">   12.31   12.37</time>
   <time name="orth">    0.32    0.32</time>
   <time name="total">   21.40   21.50</time>
   <energy>
    <i name="e_fr_energy">   -182.81547177 </i>
    <i name="e_wo_entrp">   -182.88771059 </i>
    <i name="e_0_energy">   -182.83955137 </i>
   </energy>
  </scstep>
  <scstep>
   <time name="diag">    4.15    4.17</time>
   <time name="diis">   12.60   12.66</time>
   <time name="orth">    0.32    0.32</time>
   <time name="total">   21.87   21.98</time>
   <energy>
    <i name="e_fr_energy">   -182.81741442 </i>
    <i name="e_wo_entrp">   -182.88940211 </i>
    <i name="e_0_energy">   -182.84141032 </i>
   </energy>
  </scstep>
  <scstep>
   <time name="diag">    4.05    4.07</time>
   <time name="diis">   11.57   11.63</time>
   <time name="orth">    0.32    0.32</time>
   <time name="total">   20.67   20.76</time>
   <energy>
    <i name="e_fr_energy">   -182.81833150 </i>
    <i name="e_wo_entrp">   -182.89040766 </i>
    <i name="e_0_energy">   -182.84235688 </i>
   </energy>
  </scstep>
  <scstep>
   <time name="diag">    4.08    4.10</time>
   <time name="diis">   11.26   11.30</time>
   <time name="orth">    0.31    0.32</time>
   <time name="total">   20.43   20.52</time>
   <energy>
    <i name="e_fr_energy">   -182.81900219 </i>
    <i name="e_wo_entrp">   -182.89065755 </i>
    <i name="e_0_energy">   -182.84288731 </i>
   </energy>
  </scstep>
  <scstep>
   <time name="diag">    4.06    4.07</time>
   <time name="diis">   10.35   10.41</time>
   <time name="orth">    0.31    0.31</time>
   <time name="total">   19.53   19.61</time>
   <energy>
    <i name="e_fr_energy">   -182.81922728 </i>
    <i name="e_wo_entrp">   -182.89093218 </i>
    <i name="e_0_energy">   -182.84312892 </i>
   </energy>
  </scstep>
  <scstep>
   <time name="diag">    4.07    4.08</time>
   <time name="diis">    9.38    9.43</time>
   <time name="orth">    0.31    0.31</time>
   <time name="total">   18.59   18.67</time>
   <energy>
    <i name="e_fr_energy">   -182.81934663 </i>
    <i name="e_wo_entrp">   -182.89118360 </i>
    <i name="e_0_energy">   -182.84329229 </i>
   </energy>
  </scstep>
  <scstep>
   <time name="diag">    4.08    4.10</time>
   <time name="diis">    8.62    8.65</time>
   <time name="orth">    0.33    0.33</time>
   <time name="total">   17.84   17.93</time>
   <energy>
    <i name="e_fr_energy">   -182.81945429 </i>
    <i name="e_wo_entrp">   -182.89139717 </i>
    <i name="e_0_energy">   -182.84343525 </i>
   </energy>
  </scstep>
  <scstep>
   <time name="diag">    4.21    4.22</time>
   <time name="diis">    8.20    8.24</time>
   <time name="orth">    0.31    0.31</time>
   <time name="total">   15.09   15.15</time>
   <energy>
    <i name="alphaZ">    355.51581029 </i>
    <i name="ewald">  67873.47708066 </i>
    <i name="hartreedc"> -95169.28455038 </i>
    <i name="XCdc">   -111.76335401 </i>
    <i name="pawpsdc">  23086.64996115 </i>
    <i name="pawaedc"> -21877.98428860 </i>
    <i name="eentropy">      0.07181309 </i>
    <i name="bandstr">  -2563.59217710 </i>
    <i name="atom">  28224.09016519 </i>
    <i name="e_fr_energy">   -182.81953973 </i>
    <i name="e_wo_entrp">   -182.89135282 </i>
    <i name="e_0_energy">   -182.84347742 </i>
   </energy>
  </scstep>
  <structure>
   <crystal>
    <varray name="basis" >
     <v>      18.00000000       0.00000000       0.00000000 </v>
     <v>       0.00000000      18.00000000       0.00000000 </v>
     <v>       0.00000000       0.00000000      18.00000000 </v>
    </varray>
    <i name="volume">   5832.00000000 </i>
    <varray name="rec_basis" >
     <v>       0.05555556       0.00000000       0.00000000 </v>
     <v>       0.00000000       0.05555556       0.00000000 </v>
     <v>       0.00000000       0.00000000       0.05555556 </v>
    </varray>
   </crystal>
   <varray name="positions" >
    <v>       0.72415987       0.57367709       0.49999884 </v>
    <v>       0.57367748       0.72416476       0.49999896 </v>
    <v>       0.57433976       0.42564820       0.49999771 </v>
    <v>       0.27584718       0.57366508       0.50000102 </v>
    <v>       0.42633392       0.72415229       0.50000050 </v>
    <v>       0.49999163       0.49999846       0.39510135 </v>
    <v>       0.27584506       0.42633293       0.50000053 </v>
    <v>       0.42633278       0.27584919       0.49999961 </v>
    <v>       0.72415965       0.42632488       0.49999934 </v>
    <v>       0.57367347       0.27583777       0.49999958 </v>
    <v>       0.66139785       0.50000291       0.61403403 </v>
    <v>       0.33859673       0.49999821       0.61404334 </v>
    <v>       0.50000485       0.66140186       0.61404044 </v>
    <v>       0.49999876       0.33859700       0.61404026 </v>
    <v>       0.64886196       0.64886231       0.60622248 </v>
    <v>       0.35115009       0.64885073       0.60622329 </v>
    <v>       0.35114542       0.35114654       0.60622383 </v>
    <v>       0.64885517       0.35114461       0.60622041 </v>
    <v>       0.66139838       0.49999881       0.38596471 </v>
    <v>       0.33859854       0.49999905       0.38596026 </v>
    <v>       0.50000385       0.66140334       0.38595872 </v>
    <v>       0.50000369       0.33859956       0.38596150 </v>
    <v>       0.64886010       0.64885942       0.39377423 </v>
    <v>       0.35115184       0.64884871       0.39377816 </v>
    <v>       0.35115095       0.35115082       0.39377660 </v>
    <v>       0.64885984       0.35114035       0.39377625 </v>
    <v>       0.57516716       0.57516805       0.71035430 </v>
    <v>       0.42483370       0.57516629       0.71035524 </v>
    <v>       0.42482849       0.42483027       0.71035654 </v>
    <v>       0.57516215       0.42483732       0.71034915 </v>
    <v>       0.57516540       0.57516346       0.28964734 </v>
    <v>       0.42483436       0.57516557       0.28964991 </v>
    <v>       0.42483466       0.42483341       0.28964981 </v>
    <v>       0.57516653       0.42483369       0.28964740 </v>
    <v>       0.49998814       0.49999905       0.60489762 </v>
    <v>       0.42563785       0.42564770       0.49999960 </v>
    <v>       0.42564235       0.57434859       0.49999975 </v>
    <v>       0.57434040       0.57435174       0.49999737 </v>
   </varray>
  </structure>
  <varray name="forces" >
   <v>       0.04951367       0.09608329      -0.02632706 </v>
   <v>      -0.02433497      -0.08027447      -0.03780597 </v>
   <v>       0.00092116      -0.00764371      -0.08095490 </v>
   <v>      -0.00134942       0.05409498      -0.02207523 </v>
   <v>       0.01962104      -0.02340843      -0.03884109 </v>
   <v>      -0.00975156      -0.10564392      -0.30398844 </v>
   <v>       0.07369410       0.00574665      -0.00367291 </v>
   <v>      -0.10088453      -0.05497325       0.00357795 </v>
   <v>      -0.04307113      -0.00094333      -0.00971062 </v>
   <v>       0.05824865       0.01764410       0.00969044 </v>
   <v>       0.09572543       0.05336453       0.16735115 </v>
   <v>      -0.06660940      -0.01733251       0.06117963 </v>
   <v>      -0.01120248       0.09546469       0.01566208 </v>
   <v>      -0.08289943      -0.07749969       0.20908085 </v>
   <v>      -0.02801358      -0.01291668       0.02757656 </v>
   <v>       0.04333513      -0.02263803       0.02703342 </v>
   <v>       0.02223124       0.04665998      -0.00864553 </v>
   <v>      -0.02175235       0.05395288       0.00047695 </v>
   <v>       0.15642366       0.05543548      -0.00833812 </v>
   <v>      -0.08865491      -0.01862657       0.10187055 </v>
   <v>      -0.02250166       0.11960544       0.01436106 </v>
   <v>      -0.08830156      -0.14185096       0.13648854 </v>
   <v>       0.15849297       0.02350770       0.01642633 </v>
   <v>      -0.14096103       0.02219370       0.01316934 </v>
   <v>      -0.01169797      -0.10720037       0.06467824 </v>
   <v>      -0.00135010      -0.08383587       0.07124151 </v>
   <v>      -0.01021862      -0.01686987       0.02578513 </v>
   <v>       0.03566738      -0.03813747      -0.02420968 </v>
   <v>       0.01520355       0.00346509       0.00130478 </v>
   <v>      -0.00281892      -0.00405661       0.05585772 </v>
   <v>      -0.14371087       0.09884091       0.11385323 </v>
   <v>       0.15273969       0.09577237       0.14662201 </v>
   <v>      -0.26298750      -0.06206881      -0.37448256 </v>
   <v>       0.28180068      -0.07374603      -0.42971165 </v>
   <v>      -0.00745370       0.03215116       0.01783525 </v>
   <v>       0.05671483       0.05963900      -0.06692125 </v>
   <v>      -0.03188473       0.02840191       0.06803210 </v>
   <v>      -0.01792279      -0.01235730       0.06653020 </v>
  </varray>
  <energy>
   <i name="e_fr_energy">   -182.81953973 </i>
   <i name="e_wo_entrp">   -182.84347742 </i>
   <i name="e_0_energy">      0.07181309 </i>
  </energy>
  <time name="totalsc">  994.81  999.47</time>
 </calculation>
 <calculation>
  <scstep>
   <time name="diag">    4.04    4.05</time>
   <time name="diis">   17.10   17.19</time>
   <time name="orth">    0.32    0.32</time>
   <time name="total">   26.04   26.18</time>
   <energy>
    <i name="alphaZ">    355.51581029 </i>
    <i name="ewald">  67861.64600254 </i>
    <i name="hartreedc"> -95157.63620219 </i>
    <i name="XCdc">   -111.77882490 </i>
    <i name="pawpsdc">  23086.72840788 </i>
    <i name="pawaedc"> -21878.06186450 </i>
    <i name="eentropy">      0.07151091 </i>
    <i name="bandstr">  -2563.39933973 </i>
    <i name="atom">  28224.09016519 </i>
    <i name="e_fr_energy">   -182.82433451 </i>
    <i name="e_wo_entrp">   -182.89584542 </i>
    <i name="e_0_energy">   -182.84817148 </i>
   </energy>
  </scstep>
  <scstep>
   <time name="diag">    4.13    4.14</time>
   <time name="diis">   23.00   23.11</time>
   <time name="orth">    0.32    0.32</time>
   <time name="total">   32.01   32.17</time>
   <energy>
    <i name="e_fr_energy">   -182.82498866 </i>
    <i name="e_wo_entrp">   -182.89787516 </i>
    <i name="e_0_energy">   -182.84928416 </i>
   </energy>
  </scstep>
  <scstep>
   <time name="diag">    4.07    4.08</time>
   <time name="diis">   12.03   12.11</time>
   <time name="orth">    0.32    0.32</time>
   <time name="total">   18.75   18.87</time>
   <energy>
    <i name="alphaZ">    355.51581029 </i>
    <i name="ewald">  67861.64600254 </i>
    <i name="hartreedc"> -95157.66838165 </i>
    <i name="XCdc">   -111.77806859 </i>
    <i name="pawpsdc">  23086.47601435 </i>
    <i name="pawaedc"> -21877.79843846 </i>
    <i name="eentropy">      0.07059463 </i>
    <i name="bandstr">  -2563.37859593 </i>
    <i name="atom">  28224.09016519 </i>
    <i name="e_fr_energy">   -182.82489765 </i>
    <i name="e_wo_entrp">   -182.89549228 </i>
    <i name="e_0_energy">   -182.84842920 </i>
   </energy>
  </scstep>
  <structure>
   <crystal>
    <varray name="basis" >
     <v>      18.00000000       0.00000000       0.00000000 </v>
     <v>       0.00000000      18.00000000       0.00000000 </v>
     <v>       0.00000000       0.00000000      18.00000000 </v>
    </varray>
    <i name="volume">   5832.00000000 </i>
    <varray name="rec_basis" >
     <v>       0.05555556       0.00000000       0.00000000 </v>
     <v>       0.00000000       0.05555556       0.00000000 </v>
     <v>       0.00000000       0.00000000       0.05555556 </v>
    </varray>
   </crystal>
   <varray name="positions" >
    <v>       0.72417314       0.57370284       0.49999178 </v>
    <v>       0.57367096       0.72414325       0.49998883 </v>
    <v>       0.57434001       0.42564615       0.49997601 </v>
    <v>       0.27584682       0.57367958       0.49999510 </v>
    <v>       0.42633918       0.72414602       0.49999009 </v>
    <v>       0.49998902       0.49997015       0.39501987 </v>
    <v>       0.27586481       0.42633447       0.49999955 </v>
    <v>       0.42630574       0.27583445       0.50000057 </v>
    <v>       0.72414810       0.42632462       0.49999674 </v>
    <v>       0.57368908       0.27584250       0.50000218 </v>
    <v>       0.66142351       0.50001721       0.61407888 </v>
    <v>       0.33857888       0.49999357       0.61405974 </v>
    <v>       0.50000185       0.66142745       0.61404464 </v>
    <v>       0.49997655       0.33857623       0.61409630 </v>
    <v>       0.64885445       0.64885884       0.60622987 </v>
    <v>       0.35116170       0.64884466       0.60623053 </v>
    <v>       0.35115137       0.35115905       0.60622151 </v>
    <v>       0.64884934       0.35115907       0.60622054 </v>
    <v>       0.66144031       0.50001367       0.38596248 </v>
    <v>       0.33857478       0.49999406       0.38598756 </v>
    <v>       0.49999782       0.66143540       0.38596257 </v>
    <v>       0.49998002       0.33856154       0.38599808 </v>
    <v>       0.64890257       0.64886572       0.39377864 </v>
    <v>       0.35111406       0.64885465       0.39378169 </v>
    <v>       0.35114782       0.35112209       0.39379394 </v>
    <v>       0.64885948       0.35111788       0.39379534 </v>
    <v>       0.57516442       0.57516353       0.71036121 </v>
    <v>       0.42484326       0.57515607       0.71034875 </v>
    <v>       0.42483256       0.42483119       0.71035689 </v>
    <v>       0.57516140       0.42483623       0.71036412 </v>
    <v>       0.57512688       0.57518995       0.28967785 </v>
    <v>       0.42487530       0.57519124       0.28968921 </v>
    <v>       0.42476418       0.42481677       0.28954945 </v>
    <v>       0.57524205       0.42481392       0.28953223 </v>
    <v>       0.49998614       0.50000767       0.60490240 </v>
    <v>       0.42565305       0.42566368       0.49998166 </v>
    <v>       0.42563380       0.57435620       0.50001798 </v>
    <v>       0.57433559       0.57434843       0.50001521 </v>
   </varray>
  </structure>
  <varray name="forces" >
   <v>       0.04708136       0.09429437      -0.02211272 </v>
   <v>      -0.02715704      -0.08034752      -0.03669069 </v>
   <v>      -0.00591850       0.00280580      -0.07374954 </v>
   <v>       0.00114652       0.05081610      -0.01819413 </v>
   <v>       0.02118639      -0.02705269      -0.03690215 </v>
   <v>      -0.00797417      -0.10590969      -0.28029430 </v>
   <v>       0.07206273       0.00824782      -0.00052768 </v>
   <v>      -0.10000830      -0.05424893       0.00976986 </v>
   <v>      -0.03958151       0.00083485      -0.00612121 </v>
   <v>       0.05587880       0.01257379       0.01494314 </v>
   <v>       0.09435412       0.04981117       0.15812818 </v>
   <v>      -0.06330647      -0.01451994       0.05763907 </v>
   <v>      -0.01050063       0.09051336       0.01485149 </v>
   <v>      -0.07575372      -0.07702500       0.19704005 </v>
   <v>      -0.02973292      -0.01264708       0.02807547 </v>
   <v>       0.04508629      -0.02535089       0.02678105 </v>
   <v>       0.02144281       0.04741562      -0.00810568 </v>
   <v>      -0.02273788       0.05313043       0.00237172 </v>
   <v>       0.14850169       0.05093351      -0.01409196 </v>
   <v>      -0.08078948      -0.01758178       0.09150282 </v>
   <v>      -0.02064133       0.11440727       0.01552209 </v>
   <v>      -0.08226890      -0.12988924       0.11635298 </v>
   <v>       0.14878265       0.02500442       0.01802948 </v>
   <v>      -0.13231476       0.02045934       0.01622513 </v>
   <v>      -0.01587804      -0.10258858       0.05949968 </v>
   <v>       0.00202879      -0.08199735       0.06344678 </v>
   <v>      -0.01297488      -0.01478975       0.02116837 </v>
   <v>       0.03447861      -0.03598214      -0.02927312 </v>
   <v>       0.01377735       0.00669308      -0.00079630 </v>
   <v>      -0.00446856      -0.00152890       0.05286432 </v>
   <v>      -0.13220096       0.09812926       0.10714316 </v>
   <v>       0.13876559       0.09465394       0.14064720 </v>
   <v>      -0.24371205      -0.06074706      -0.34970209 </v>
   <v>       0.25971932      -0.07207195      -0.40103445 </v>
   <v>      -0.00452881       0.02649586       0.01842076 </v>
   <v>       0.05276783       0.05406265      -0.05979755 </v>
   <v>      -0.02787602       0.02651597       0.05401655 </v>
   <v>      -0.01673588      -0.01352011       0.05295425 </v>
  </varray>
  <energy>
   <i name="e_fr_energy">   -182.82489765 </i>
   <i name="e_wo_entrp">   -182.84842920 </i>
   <i name="e_0_energy">      0.07059463 </i>
  </energy>
  <time name="totalsc">   94.08   94.62</time>
 </calculation>
 <calculation>
  <scstep>
   <time name="diag">    4.08    4.09</time>
   <time name="diis">   17.06   17.15</time>
   <time name="orth">    0.32    0.32</time>
   <time name="total">   26.02   26.14</time>
   <energy>
    <i name="alphaZ">    355.51581029 </i>
    <i name="ewald">  67826.17339897 </i>
    <i name="hartreedc"> -95122.52171334 </i>
    <i name="XCdc">   -111.82563792 </i>
    <i name="pawpsdc">  23086.41693237 </i>
    <i name="pawaedc"> -21877.73842164 </i>
    <i name="eentropy">      0.07088621 </i>
    <i name="bandstr">  -2563.01693292 </i>
    <i name="atom">  28224.09016519 </i>
    <i name="e_fr_energy">   -182.83551280 </i>
    <i name="e_wo_entrp">   -182.90639901 </i>
    <i name="e_0_energy">   -182.85914154 </i>
   </energy>
  </scstep>
  <scstep>
   <time name="diag">    4.10    4.12</time>
   <time name="diis">   23.01   23.11</time>
   <time name="orth">    0.32    0.32</time>
   <time name="total">   32.01   32.16</time>
   <energy>
    <i name="e_fr_energy">   -182.84086782 </i>
    <i name="e_wo_entrp">   -182.91356660 </i>
    <i name="e_0_energy">   -182.86510075 </i>
   </energy>
  </scstep>
  <scstep>
   <time name="diag">    4.06    4.08</time>
   <time name="diis">   19.12   19.22</time>
   <time name="orth">    0.32    0.32</time>
   <time name="total">   28.06   28.20</time>
   <energy>
    <i name="e_fr_energy">   -182.83957481 </i>
    <i name="e_wo_entrp">   -182.91030334 </i>
    <i name="e_0_energy">   -182.86315098 </i>
   </energy>
  </scstep>
  <scstep>
   <time name="diag">    4.10    4.12</time>
   <time name="diis">   12.98   13.04</time>
   <time name="orth">    0.32    0.32</time>
   <time name="total">   21.95   22.06</time>
   <energy>
    <i name="e_fr_energy">   -182.83926813 </i>
    <i name="e_wo_entrp">   -182.91031733 </i>
    <i name="e_0_energy">   -182.86295119 </i>
   </energy>
  </scstep>
  <scstep>
   <time name="diag">    4.10    4.12</time>
   <time name="diis">   10.06   10.09</time>
   <time name="orth">    0.31    0.31</time>
   <time name="total">   19.03   19.11</time>
   <energy>
    <i name="e_fr_energy">   -182.83911269 </i>
    <i name="e_wo_entrp">   -182.91007181 </i>
    <i name="e_0_energy">   -182.86276573 </i>
   </energy>
  </scstep>
  <scstep>
   <time name="diag">    4.04    4.08</time>
   <time name="diis">   10.07   10.15</time>
   <time name="orth">    0.32    0.32</time>
   <time name="total">   16.76   16.90</time>
   <energy>
    <i name="alphaZ">    355.51581029 </i>
    <i name="ewald">  67826.17339897 </i>
    <i name="hartreedc"> -95122.67066323 </i>
    <i name="XCdc">   -111.82364591 </i>
    <i name="pawpsdc">  23085.14727368 </i>
    <i name="pawaedc"> -21876.41757399 </i>
    <i name="eentropy">      0.07143995 </i>
    <i name="bandstr">  -2562.92524964 </i>
    <i name="atom">  28224.09016519 </i>
    <i name="e_fr_energy">   -182.83904471 </i>
    <i name="e_wo_entrp">   -182.91048466 </i>
    <i name="e_0_energy">   -182.86285802 </i>
   </energy>
  </scstep>
  <structure>
   <crystal>
    <varray name="basis" >
     <v>      18.00000000       0.00000000       0.00000000 </v>
     <v>       0.00000000      18.00000000       0.00000000 </v>
     <v>       0.00000000       0.00000000      18.00000000 </v>
    </varray>
    <i name="volume">   5832.00000000 </i>
    <varray name="rec_basis" >
     <v>       0.05555556       0.00000000       0.00000000 </v>
     <v>       0.00000000       0.05555556       0.00000000 </v>
     <v>       0.00000000       0.00000000       0.05555556 </v>
    </varray>
   </crystal>
   <varray name="positions" >
    <v>       0.72421295       0.57378010       0.49997061 </v>
    <v>       0.57365139       0.72407870       0.49995843 </v>
    <v>       0.57434075       0.42564000       0.49991092 </v>
    <v>       0.27584573       0.57372307       0.49997735 </v>
    <v>       0.42635496       0.72412720       0.49995886 </v>
    <v>       0.49998118       0.49988521       0.39477545 </v>
    <v>       0.27592406       0.42633910       0.49999659 </v>
    <v>       0.42622463       0.27579025       0.50000345 </v>
    <v>       0.72411347       0.42632387       0.49998893 </v>
    <v>       0.57373592       0.27585668       0.50000997 </v>
    <v>       0.66150047       0.50006012       0.61421344 </v>
    <v>       0.33852532       0.49997963       0.61410893 </v>
    <v>       0.49999284       0.66150420       0.61405723 </v>
    <v>       0.49990989       0.33851391       0.61426441 </v>
    <v>       0.64883193       0.64884846       0.60625204 </v>
    <v>       0.35119655       0.64882646       0.60625227 </v>
    <v>       0.35116925       0.35119657       0.60621456 </v>
    <v>       0.64883185       0.35120245       0.60622092 </v>
    <v>       0.66156608       0.50005824       0.38595578 </v>
    <v>       0.33850350       0.49997908       0.38606947 </v>
    <v>       0.49997972       0.66153157       0.38597412 </v>
    <v>       0.49990903       0.33844749       0.38610783 </v>
    <v>       0.64903001       0.64888462       0.39379184 </v>
    <v>       0.35100072       0.64887250       0.39379228 </v>
    <v>       0.35113841       0.35103589       0.39384594 </v>
    <v>       0.64885840       0.35105048       0.39385263 </v>
    <v>       0.57515620       0.57514997       0.71038194 </v>
    <v>       0.42487194       0.57512540       0.71032929 </v>
    <v>       0.42484479       0.42483398       0.71035794 </v>
    <v>       0.57515913       0.42483297       0.71040904 </v>
    <v>       0.57501133       0.57526943       0.28976939 </v>
    <v>       0.42499811       0.57526824       0.28980710 </v>
    <v>       0.42455272       0.42476686       0.28924835 </v>
    <v>       0.57546864       0.42475463       0.28918673 </v>
    <v>       0.49998015       0.50003352       0.60491674 </v>
    <v>       0.42569865       0.42571163       0.49992785 </v>
    <v>       0.42560816       0.57437903       0.50007268 </v>
    <v>       0.57432118       0.57433849       0.50006870 </v>
   </varray>
  </structure>
  <varray name="forces" >
   <v>       0.04339859       0.08277035      -0.01562323 </v>
   <v>      -0.01885292      -0.07760021      -0.03757767 </v>
   <v>      -0.00904597       0.00995758      -0.06869493 </v>
   <v>      -0.01244785       0.05298219      -0.01200788 </v>
   <v>       0.01365558      -0.01939184      -0.03660507 </v>
   <v>       0.00274643      -0.12942955      -0.25551898 </v>
   <v>       0.06871040       0.00347987       0.00767815 </v>
   <v>      -0.08140051      -0.04469182       0.02640615 </v>
   <v>      -0.04814993       0.01351907       0.00393646 </v>
   <v>       0.03457052       0.02120918       0.03241853 </v>
   <v>       0.09678820       0.04200310       0.14252223 </v>
   <v>      -0.06593331      -0.01305949       0.05736092 </v>
   <v>      -0.00700409       0.09252126       0.02253838 </v>
   <v>      -0.06240076      -0.07758478       0.17073490 </v>
   <v>      -0.02140796      -0.00754823       0.03165220 </v>
   <v>       0.03061859      -0.01496260       0.03331334 </v>
   <v>       0.02376073       0.04562314      -0.00983433 </v>
   <v>      -0.03331336       0.05849287       0.00430364 </v>
   <v>       0.12268626       0.03826678      -0.02446467 </v>
   <v>      -0.05940149      -0.02236831       0.06802030 </v>
   <v>      -0.01533382       0.10676616       0.02071133 </v>
   <v>      -0.07075231      -0.08869122       0.07837243 </v>
   <v>       0.13544719       0.01989889       0.02189136 </v>
   <v>      -0.12899978       0.02320984       0.01753858 </v>
   <v>      -0.00942326      -0.08969053       0.04430422 </v>
   <v>      -0.01348754      -0.06070746       0.04550085 </v>
   <v>      -0.01120598      -0.01122686       0.03240401 </v>
   <v>       0.03247141      -0.03360480      -0.01342982 </v>
   <v>       0.01008116       0.00408668       0.00703726 </v>
   <v>      -0.00189628      -0.00476640       0.05152379 </v>
   <v>      -0.10470152       0.09024318       0.11220933 </v>
   <v>       0.11100272       0.08631945       0.13458460 </v>
   <v>      -0.23602720      -0.06816685      -0.33473890 </v>
   <v>       0.25067194      -0.07991962      -0.37655172 </v>
   <v>       0.00422237       0.01601997       0.01250603 </v>
   <v>       0.05991957       0.04915053      -0.05901090 </v>
   <v>      -0.01310252       0.01474487       0.03336379 </v>
   <v>      -0.01646329      -0.02785438       0.03122528 </v>
  </varray>
  <energy>
   <i name="e_fr_energy">   -182.83904471 </i>
   <i name="e_wo_entrp">   -182.86285802 </i>
   <i name="e_0_energy">      0.07143995 </i>
  </energy>
  <time name="totalsc">  160.96  161.80</time>
 </calculation>
 <calculation>
  <scstep>
   <time name="diag">    4.05    4.10</time>
   <time name="diis">   17.21   17.28</time>
   <time name="orth">    0.32    0.32</time>
   <time name="total">   26.16   26.31</time>
   <energy>
    <i name="alphaZ">    355.51581029 </i>
    <i name="ewald">  67755.32120132 </i>
    <i name="hartreedc"> -95052.53941819 </i>
    <i name="XCdc">   -111.91805605 </i>
    <i name="pawpsdc">  23084.53659104 </i>
    <i name="pawaedc"> -21875.78811988 </i>
    <i name="eentropy">      0.06922555 </i>
    <i name="bandstr">  -2562.13557807 </i>
    <i name="atom">  28224.09016519 </i>
    <i name="e_fr_energy">   -182.84817879 </i>
    <i name="e_wo_entrp">   -182.91740434 </i>
    <i name="e_0_energy">   -182.87125397 </i>
   </energy>
  </scstep>
  <scstep>
   <time name="diag">    4.08    4.10</time>
   <time name="diis">   22.97   23.08</time>
   <time name="orth">    0.31    0.31</time>
   <time name="total">   31.89   32.04</time>
   <energy>
    <i name="e_fr_energy">   -182.86690213 </i>
    <i name="e_wo_entrp">   -182.94396948 </i>
    <i name="e_0_energy">   -182.89259124 </i>
   </energy>
  </scstep>
  <scstep>
   <time name="diag">    4.13    4.15</time>
   <time name="diis">   19.29   19.39</time>
   <time name="orth">    0.31    0.32</time>
   <time name="total">   28.26   28.39</time>
   <energy>
    <i name="e_fr_energy">   -182.86515453 </i>
    <i name="e_wo_entrp">   -182.93180696 </i>
    <i name="e_0_energy">   -182.88737201 </i>
   </energy>
  </scstep>
  <scstep>
   <time name="diag">    4.11    4.12</time>
   <time name="diis">   18.12   18.22</time>
   <time name="orth">    0.31    0.32</time>
   <time name="total">   27.07   27.20</time>
   <energy>
    <i name="e_fr_energy">   -182.86285326 </i>
    <i name="e_wo_entrp">   -182.93259253 </i>
    <i name="e_0_energy">   -182.88609968 </i>
   </energy>
  </scstep>
  <scstep>
   <time name="diag">    4.06    4.07</time>
   <time name="diis">   14.26   14.34</time>
   <time name="orth">    0.33    0.33</time>
   <time name="total">   23.20   23.31</time>
   <energy>
    <i name="e_fr_energy">   -182.86177705 </i>
    <i name="e_wo_entrp">   -182.93209114 </i>
    <i name="e_0_energy">   -182.88521508 </i>
   </energy>
  </scstep>
  <scstep>
   <time name="diag">    4.05    4.06</time>
   <time name="diis">   16.46   16.53</time>
   <time name="orth">    0.32    0.32</time>
   <time name="total">   25.35   25.46</time>
   <energy>
    <i name="e_fr_energy">   -182.86148706 </i>
    <i name="e_wo_entrp">   -182.93215126 </i>
    <i name="e_0_energy">   -182.88504180 </i>
   </energy>
  </scstep>
  <scstep>
   <time name="diag">    4.11    4.14</time>
   <time name="diis">   18.02   18.09</time>
   <time name="orth">    0.31    0.31</time>
   <time name="total">   27.00   27.14</time>
   <energy>
    <i name="e_fr_energy">   -182.86113083 </i>
    <i name="e_wo_entrp">   -182.93061580 </i>
    <i name="e_0_energy">   -182.88429249 </i>
   </energy>
  </scstep>
  <scstep>
   <time name="diag">    4.09    4.11</time>
   <time name="diis">   12.80   12.85</time>
   <time name="orth">    0.32    0.32</time>
   <time name="total">   21.77   21.86</time>
   <energy>
    <i name="e_fr_energy">   -182.86096368 </i>
    <i name="e_wo_entrp">   -182.93254450 </i>
    <i name="e_0_energy">   -182.88482395 </i>
   </energy>
  </scstep>
  <scstep>
   <time name="diag">    4.12    4.14</time>
   <time name="diis">   10.18   10.24</time>
   <time name="orth">    0.31    0.31</time>
   <time name="total">   16.95   17.05</time>
   <energy>
    <i name="alphaZ">    355.51581029 </i>
    <i name="ewald">  67755.32120132 </i>
    <i name="hartreedc"> -95052.91393633 </i>
    <i name="XCdc">   -111.91064396 </i>
    <i name="pawpsdc">  23080.94250735 </i>
    <i name="pawaedc"> -21872.04855076 </i>
    <i name="eentropy">      0.07037544 </i>
    <i name="bandstr">  -2561.92785445 </i>
    <i name="atom">  28224.09016519 </i>
    <i name="e_fr_energy">   -182.86092592 </i>
    <i name="e_wo_entrp">   -182.93130136 </i>
    <i name="e_0_energy">   -182.88438440 </i>
   </energy>
  </scstep>
  <structure>
   <crystal>
    <varray name="basis" >
     <v>      18.00000000       0.00000000       0.00000000 </v>
     <v>       0.00000000      18.00000000       0.00000000 </v>
     <v>       0.00000000       0.00000000      18.00000000 </v>
    </varray>
    <i name="volume">   5832.00000000 </i>
    <varray name="rec_basis" >
     <v>       0.05555556       0.00000000       0.00000000 </v>
     <v>       0.00000000       0.05555556       0.00000000 </v>
     <v>       0.00000000       0.00000000       0.05555556 </v>
    </varray>
   </crystal>
   <varray name="positions" >
    <v>       0.72429257       0.57393461       0.49992828 </v>
    <v>       0.57361226       0.72394962       0.49989764 </v>
    <v>       0.57434223       0.42562771       0.49978074 </v>
    <v>       0.27584356       0.57381006       0.49994185 </v>
    <v>       0.42638651       0.72408955       0.49989640 </v>
    <v>       0.49996550       0.49971532       0.39428661 </v>
    <v>       0.27604257       0.42634834       0.49999069 </v>
    <v>       0.42606240       0.27570185       0.50000920 </v>
    <v>       0.72404421       0.42632235       0.49997331 </v>
    <v>       0.57382958       0.27588506       0.50002555 </v>
    <v>       0.66165441       0.50014593       0.61448255 </v>
    <v>       0.33841821       0.49995176       0.61420731 </v>
    <v>       0.49997482       0.66165772       0.61408242 </v>
    <v>       0.49977658       0.33838929       0.61460063 </v>
    <v>       0.64878688       0.64882769       0.60629639 </v>
    <v>       0.35126623       0.64879005       0.60629574 </v>
    <v>       0.35120500       0.35127160       0.60620065 </v>
    <v>       0.64879687       0.35128921       0.60622169 </v>
    <v>       0.66181762       0.50014739       0.38594237 </v>
    <v>       0.33836093       0.49994913       0.38623329 </v>
    <v>       0.49994354       0.66172390       0.38599721 </v>
    <v>       0.49976703       0.33821938       0.38632731 </v>
    <v>       0.64928488       0.64892242       0.39381826 </v>
    <v>       0.35077405       0.64890819       0.39381346 </v>
    <v>       0.35111960       0.35086351       0.39394995 </v>
    <v>       0.64885622       0.35091566       0.39396719 </v>
    <v>       0.57513977       0.57512284       0.71042341 </v>
    <v>       0.42492929       0.57506407       0.71029036 </v>
    <v>       0.42486924       0.42483955       0.71036004 </v>
    <v>       0.57515460       0.42482645       0.71049886 </v>
    <v>       0.57478023       0.57542837       0.28995248 </v>
    <v>       0.42524373       0.57542225       0.29004288 </v>
    <v>       0.42412982       0.42466705       0.28864614 </v>
    <v>       0.57592180       0.42463604       0.28849571 </v>
    <v>       0.49996817       0.50008522       0.60494543 </v>
    <v>       0.42578986       0.42580754       0.49982024 </v>
    <v>       0.42555689       0.57442471       0.50018208 </v>
    <v>       0.57429236       0.57431862       0.50017568 </v>
   </varray>
  </structure>
  <varray name="forces" >
   <v>       0.02543653       0.05796738       0.00024475 </v>
   <v>      -0.00511796      -0.06294570      -0.03242567 </v>
   <v>      -0.02707755       0.04247522      -0.05338200 </v>
   <v>      -0.01578502       0.04293107      -0.00050911 </v>
   <v>      -0.00004392      -0.00954984      -0.02905024 </v>
   <v>       0.01759423      -0.15462586      -0.17578983 </v>
   <v>       0.05633178       0.00294436       0.02159319 </v>
   <v>      -0.05934331      -0.03596616       0.05247704 </v>
   <v>      -0.04820256       0.03356105       0.02386005 </v>
   <v>       0.00723046       0.01602130       0.05798517 </v>
   <v>       0.08369966       0.02779625       0.09390482 </v>
   <v>      -0.05979358      -0.00388735       0.04516483 </v>
   <v>       0.00067056       0.07560691       0.02995483 </v>
   <v>      -0.03102343      -0.07328946       0.11247804 </v>
   <v>      -0.01700670      -0.00664405       0.03695130 </v>
   <v>       0.01758903      -0.00864266       0.04109589 </v>
   <v>       0.01576395       0.03640946      -0.00829332 </v>
   <v>      -0.04015728       0.05937374       0.01399624 </v>
   <v>       0.07007982       0.00951631      -0.04222128 </v>
   <v>      -0.01117298      -0.03263107       0.02211833 </v>
   <v>      -0.00661178       0.09066469       0.02105704 </v>
   <v>      -0.04558366      -0.00948578       0.00340888 </v>
   <v>       0.11047915       0.01707050       0.03092685 </v>
   <v>      -0.11326757       0.01756460       0.02537494 </v>
   <v>       0.00102477      -0.05884881       0.01099796 </v>
   <v>      -0.03260205      -0.02998355       0.00247708 </v>
   <v>      -0.01296968      -0.00523154       0.03171879 </v>
   <v>       0.02766253      -0.02674661      -0.00169232 </v>
   <v>       0.00477378       0.00851539       0.01910565 </v>
   <v>      -0.00317003      -0.00045156       0.04174134 </v>
   <v>      -0.04828852       0.07321324       0.09856546 </v>
   <v>       0.04799121       0.06932201       0.11336372 </v>
   <v>      -0.19560637      -0.06689618      -0.25343054 </v>
   <v>       0.20251743      -0.07617117      -0.27941562 </v>
   <v>       0.01945427      -0.00654768       0.00796565 </v>
   <v>       0.06897592       0.03965852      -0.05009362 </v>
   <v>       0.01146519      -0.00187174      -0.01433766 </v>
   <v>      -0.01591632      -0.05019526      -0.01788661 </v>
  </varray>
  <energy>
   <i name="e_fr_energy">   -182.86092592 </i>
   <i name="e_wo_entrp">   -182.88438440 </i>
   <i name="e_0_energy">      0.07037544 </i>
  </energy>
  <time name="totalsc">  244.93  246.12</time>
 </calculation>
 <calculation>
  <scstep>
   <time name="diag">    4.05    4.07</time>
   <time name="diis">   17.14   17.21</time>
   <time name="orth">    0.32    0.32</time>
   <time name="total">   26.07   26.18</time>
   <energy>
    <i name="alphaZ">    355.51581029 </i>
    <i name="ewald">  67613.99034130 </i>
    <i name="hartreedc"> -94912.81652596 </i>
    <i name="XCdc">   -112.09139721 </i>
    <i name="pawpsdc">  23080.90084740 </i>
    <i name="pawaedc"> -21872.00265719 </i>
    <i name="eentropy">      0.06845561 </i>
    <i name="bandstr">  -2560.49048968 </i>
    <i name="atom">  28224.09016519 </i>
    <i name="e_fr_energy">   -182.83545024 </i>
    <i name="e_wo_entrp">   -182.90390586 </i>
    <i name="e_0_energy">   -182.85826878 </i>
   </energy>
  </scstep>
  <scstep>
   <time name="diag">    4.11    4.13</time>
   <time name="diis">   22.72   22.83</time>
   <time name="orth">    0.32    0.32</time>
   <time name="total">   31.65   31.80</time>
   <energy>
    <i name="e_fr_energy">   -182.93738150 </i>
    <i name="e_wo_entrp">   -183.01697722 </i>
    <i name="e_0_energy">   -182.96391341 </i>
   </energy>
  </scstep>
  <scstep>
   <time name="diag">    4.10    4.11</time>
   <time name="diis">   19.44   19.53</time>
   <time name="orth">    0.32    0.32</time>
   <time name="total">   28.35   28.47</time>
   <energy>
    <i name="e_fr_energy">   -182.89741812 </i>
    <i name="e_wo_entrp">   -182.97766922 </i>
    <i name="e_0_energy">   -182.92416849 </i>
   </energy>
  </scstep>
  <scstep>
   <time name="diag">    4.07    4.08</time>
   <time name="diis">   17.67   17.77</time>
   <time name="orth">    0.31    0.32</time>
   <time name="total">   26.54   26.68</time>
   <energy>
    <i name="e_fr_energy">   -182.88941872 </i>
    <i name="e_wo_entrp">   -182.95081108 </i>
    <i name="e_0_energy">   -182.90988284 </i>
   </energy>
  </scstep>
  <scstep>
   <time name="diag">    4.08    4.10</time>
   <time name="diis">   17.78   17.92</time>
   <time name="orth">    0.32    0.32</time>
   <time name="total">   26.68   26.85</time>
   <energy>
    <i name="e_fr_energy">   -182.88564734 </i>
    <i name="e_wo_entrp">   -182.95706208 </i>
    <i name="e_0_energy">   -182.90945225 </i>
   </energy>
  </scstep>
  <scstep>
   <time name="diag">    4.10    4.11</time>
   <time name="diis">   18.51   18.61</time>
   <time name="orth">    0.32    0.32</time>
   <time name="total">   27.42   27.55</time>
   <energy>
    <i name="e_fr_energy">   -182.88476222 </i>
    <i name="e_wo_entrp">   -182.95585143 </i>
    <i name="e_0_energy">   -182.90845862 </i>
   </energy>
  </scstep>
  <scstep>
   <time name="diag">    4.10    4.11</time>
   <time name="diis">   18.82   18.95</time>
   <time name="orth">    0.32    0.32</time>
   <time name="total">   27.78   27.95</time>
   <energy>
    <i name="e_fr_energy">   -182.88418908 </i>
    <i name="e_wo_entrp">   -182.94929346 </i>
    <i name="e_0_energy">   -182.90589054 </i>
   </energy>
  </scstep>
  <scstep>
   <time name="diag">    4.08    4.10</time>
   <time name="diis">   19.98   20.08</time>
   <time name="orth">    0.32    0.32</time>
   <time name="total">   28.88   29.03</time>
   <energy>
    <i name="e_fr_energy">   -182.88285272 </i>
    <i name="e_wo_entrp">   -182.95461836 </i>
    <i name="e_0_energy">   -182.90677460 </i>
   </energy>
  </scstep>
  <scstep>
   <time name="diag">    4.08    4.10</time>
   <time name="diis">   16.90   16.97</time>
   <time name="orth">    0.32    0.32</time>
   <time name="total">   25.86   25.96</time>
   <energy>
    <i name="e_fr_energy">   -182.88255262 </i>
    <i name="e_wo_entrp">   -182.95357993 </i>
    <i name="e_0_energy">   -182.90622839 </i>
   </energy>
  </scstep>
  <scstep>
   <time name="diag">    4.09    4.11</time>
   <time name="diis">   10.24   10.29</time>
   <time name="orth">    0.31    0.31</time>
   <time name="total">   16.95   17.04</time>
   <energy>
    <i name="alphaZ">    355.51581029 </i>
    <i name="ewald">  67613.99034130 </i>
    <i name="hartreedc"> -94913.76632746 </i>
    <i name="XCdc">   -112.07504958 </i>
    <i name="pawpsdc">  23074.79597422 </i>
    <i name="pawaedc"> -21865.63004155 </i>
    <i name="eentropy">      0.06996336 </i>
    <i name="bandstr">  -2559.87331791 </i>
    <i name="atom">  28224.09016519 </i>
    <i name="e_fr_energy">   -182.88248214 </i>
    <i name="e_wo_entrp">   -182.95244551 </i>
    <i name="e_0_energy">   -182.90580326 </i>
   </energy>
  </scstep>
  <structure>
   <crystal>
    <varray name="basis" >
     <v>      18.00000000       0.00000000       0.00000000 </v>
     <v>       0.00000000      18.00000000       0.00000000 </v>
     <v>       0.00000000       0.00000000      18.00000000 </v>
    </varray>
    <i name="volume">   5832.00000000 </i>
    <varray name="rec_basis" >
     <v>       0.05555556       0.00000000       0.00000000 </v>
     <v>       0.00000000       0.05555556       0.00000000 </v>
     <v>       0.00000000       0.00000000       0.05555556 </v>
    </varray>
   </crystal>
   <varray name="positions" >
    <v>       0.72445182       0.57424363       0.49984360 </v>
    <v>       0.57353399       0.72369144       0.49977605 </v>
    <v>       0.57434519       0.42560313       0.49952037 </v>
    <v>       0.27583922       0.57398404       0.49987085 </v>
    <v>       0.42644961       0.72401427       0.49977148 </v>
    <v>       0.49993413       0.49937555       0.39330893 </v>
    <v>       0.27627958       0.42636682       0.49997887 </v>
    <v>       0.42573793       0.27552505       0.50002071 </v>
    <v>       0.72390569       0.42631931       0.49994208 </v>
    <v>       0.57401692       0.27594180       0.50005672 </v>
    <v>       0.66196228       0.50031756       0.61502078 </v>
    <v>       0.33820398       0.49989601       0.61440408 </v>
    <v>       0.49993880       0.66196475       0.61413279 </v>
    <v>       0.49950996       0.33814004       0.61527307 </v>
    <v>       0.64869678       0.64878614       0.60638508 </v>
    <v>       0.35140561       0.64871725       0.60638268 </v>
    <v>       0.35127650       0.35142167       0.60617285 </v>
    <v>       0.64872691       0.35146273       0.60622322 </v>
    <v>       0.66232071       0.50032568       0.38591555 </v>
    <v>       0.33807580       0.49988922       0.38656092 </v>
    <v>       0.49987117       0.66210858       0.38604340 </v>
    <v>       0.49948303       0.33776316       0.38676628 </v>
    <v>       0.64979462       0.64899802       0.39387109 </v>
    <v>       0.35032069       0.64897957       0.39385581 </v>
    <v>       0.35108198       0.35051873       0.39415797 </v>
    <v>       0.64885188       0.35064603       0.39419631 </v>
    <v>       0.57510690       0.57506858       0.71050634 </v>
    <v>       0.42504400       0.57494142       0.71021249 </v>
    <v>       0.42491813       0.42485070       0.71036423 </v>
    <v>       0.57514553       0.42481340       0.71067851 </v>
    <v>       0.57431803       0.57574626       0.29031865 </v>
    <v>       0.42573497       0.57573027       0.29051444 </v>
    <v>       0.42328400       0.42446743       0.28744174 </v>
    <v>       0.57682812       0.42439886       0.28711368 </v>
    <v>       0.49994419       0.50018862       0.60500279 </v>
    <v>       0.42597226       0.42599935       0.49960501 </v>
    <v>       0.42545434       0.57451605       0.50040089 </v>
    <v>       0.57423472       0.57427887       0.50038966 </v>
   </varray>
  </structure>
  <varray name="forces" >
   <v>      -0.00202354       0.00893756       0.03164279 </v>
   <v>       0.02068402      -0.03505148      -0.02592986 </v>
   <v>      -0.05456104       0.09619302      -0.02568980 </v>
   <v>      -0.03005496       0.02751299       0.02683044 </v>
   <v>      -0.02777378       0.00839288      -0.01898043 </v>
   <v>       0.05058854      -0.21933962      -0.01637578 </v>
   <v>       0.03478591       0.00213218       0.05327291 </v>
   <v>      -0.00942375      -0.01554861       0.11248288 </v>
   <v>      -0.05985853       0.07343841       0.06195582 </v>
   <v>      -0.04958042       0.01764701       0.11516379 </v>
   <v>       0.07099431      -0.00625296       0.00119836 </v>
   <v>      -0.04933880       0.01295486       0.02015816 </v>
   <v>       0.01234753       0.05506481       0.04558653 </v>
   <v>       0.03365757      -0.06840998      -0.00728286 </v>
   <v>       0.00242837       0.00653789       0.04433020 </v>
   <v>      -0.01322681       0.00538507       0.05159297 </v>
   <v>       0.00470235       0.02271709      -0.00966936 </v>
   <v>      -0.06171010       0.06489313       0.02372231 </v>
   <v>      -0.03609328      -0.04633242      -0.07845376 </v>
   <v>       0.08017656      -0.04332864      -0.07383097 </v>
   <v>       0.00967586       0.05573807       0.02691943 </v>
   <v>       0.00783257       0.13340655      -0.14632125 </v>
   <v>       0.05119337       0.00917806       0.04378536 </v>
   <v>      -0.07371509       0.00827554       0.03917852 </v>
   <v>       0.01056341      -0.00357935      -0.05532032 </v>
   <v>      -0.07160343       0.03836198      -0.07660285 </v>
   <v>      -0.01356637       0.01077952       0.04853901 </v>
   <v>       0.01226973      -0.00951347       0.02564750 </v>
   <v>      -0.01219046       0.01398547       0.04497210 </v>
   <v>       0.00008534       0.00067489       0.02660593 </v>
   <v>       0.07537347       0.04143538       0.07365960 </v>
   <v>      -0.08886328       0.03921750       0.06440867 </v>
   <v>      -0.10526622      -0.06252289      -0.08965854 </v>
   <v>       0.10255586      -0.06503780      -0.07796723 </v>
   <v>       0.05284207      -0.05720344      -0.01230775 </v>
   <v>       0.07769971       0.00977090      -0.02836042 </v>
   <v>       0.05983615      -0.03593041      -0.11687367 </v>
   <v>      -0.01144282      -0.09457967      -0.12202845 </v>
  </varray>
  <energy>
   <i name="e_fr_energy">   -182.88248214 </i>
   <i name="e_wo_entrp">   -182.90580326 </i>
   <i name="e_0_energy">      0.06996336 </i>
  </energy>
  <time name="totalsc">  283.39  284.82</time>
 </calculation>
 <calculation>
  <scstep>
   <time name="diag">    4.10    4.12</time>
   <time name="diis">   17.16   17.22</time>
   <time name="orth">    0.32    0.32</time>
   <time name="total">   26.11   26.21</time>
   <energy>
    <i name="alphaZ">    355.51581029 </i>
    <i name="ewald">  67576.17647303 </i>
    <i name="hartreedc"> -94876.22875786 </i>
    <i name="XCdc">   -112.12265943 </i>
    <i name="pawpsdc">  23074.75128418 </i>
    <i name="pawaedc"> -21865.58457383 </i>
    <i name="eentropy">      0.07086906 </i>
    <i name="bandstr">  -2559.54780954 </i>
    <i name="atom">  28224.09016519 </i>
    <i name="e_fr_energy">   -182.87919891 </i>
[...]
    <v>       0.33938249       0.49805383       0.61601269 </v>
    <v>       0.50155554       0.66140219       0.61474017 </v>
    <v>       0.49766841       0.33915091       0.61850509 </v>
    <v>       0.65013448       0.65007210       0.60786959 </v>
    <v>       0.35338192       0.64603512       0.60712492 </v>
    <v>       0.34993551       0.35003409       0.61011319 </v>
    <v>       0.64530311       0.35430430       0.60919880 </v>
    <v>       0.66219465       0.50005264       0.38384877 </v>
    <v>       0.33986006       0.49754654       0.38472637 </v>
    <v>       0.50034473       0.66179638       0.38573567 </v>
    <v>       0.49792648       0.33967806       0.38301338 </v>
    <v>       0.65174662       0.64961045       0.39335138 </v>
    <v>       0.34986546       0.64730644       0.39499378 </v>
    <v>       0.35027213       0.34875470       0.38912988 </v>
    <v>       0.64600657       0.35164028       0.39179394 </v>
    <v>       0.57680451       0.57771732       0.71390320 </v>
    <v>       0.42737975       0.57366763       0.71121662 </v>
    <v>       0.42330210       0.42431739       0.71531488 </v>
    <v>       0.57311069       0.42794756       0.71404457 </v>
    <v>       0.57528552       0.57729664       0.28979800 </v>
    <v>       0.42575558       0.57609863       0.29049625 </v>
    <v>       0.42126849       0.42393453       0.28117403 </v>
    <v>       0.57787466       0.42490380       0.28204354 </v>
    <v>       0.50093454       0.50003824       0.60684342 </v>
    <v>       0.42677414       0.42595885       0.49919023 </v>
    <v>       0.42789851       0.57230866       0.49925617 </v>
    <v>       0.57472513       0.57384903       0.49907802 </v>
   </varray>
  </structure>
  <varray name="forces" >
   <v>       0.00127003       0.00611762      -0.00105963 </v>
   <v>       0.00196541      -0.00050007       0.00006582 </v>
   <v>       0.00148838       0.00013943       0.00321321 </v>
   <v>       0.00183674       0.00030414       0.00350048 </v>
   <v>       0.00128254      -0.00325100       0.00445611 </v>
   <v>      -0.00177304      -0.00569200       0.01265767 </v>
   <v>      -0.00161341      -0.00489645       0.00103794 </v>
   <v>      -0.00737767      -0.00405055      -0.00103075 </v>
   <v>      -0.00025251       0.00342856       0.00732447 </v>
   <v>      -0.00407209       0.00024374       0.00617395 </v>
   <v>      -0.00454753       0.00194040       0.00268346 </v>
   <v>       0.00648382      -0.00474364       0.00139693 </v>
   <v>       0.00417171      -0.00468524      -0.00050522 </v>
   <v>      -0.00225827       0.00589244       0.00229598 </v>
   <v>       0.00307530       0.00482932       0.00216044 </v>
   <v>       0.00940368      -0.00840448       0.00559299 </v>
   <v>       0.00102769       0.00123932       0.00195098 </v>
   <v>      -0.01520846       0.01431228       0.00559252 </v>
   <v>       0.00951221       0.00063991       0.00188637 </v>
   <v>      -0.00732051       0.00050316      -0.00049916 </v>
   <v>      -0.00048524       0.00782558       0.00504561 </v>
   <v>      -0.00086287      -0.00926007      -0.00162583 </v>
   <v>       0.00527524       0.00439472       0.00432387 </v>
   <v>      -0.00622663       0.00437123       0.00725385 </v>
   <v>      -0.00532411      -0.00414648      -0.00297091 </v>
   <v>       0.00408546      -0.00312885       0.00521294 </v>
   <v>       0.00409172       0.00337843      -0.00893707 </v>
   <v>       0.00890935      -0.00900049      -0.01102555 </v>
   <v>      -0.00174907      -0.00165431      -0.00745202 </v>
   <v>      -0.01110726       0.01022880      -0.01323680 </v>
   <v>       0.00794403       0.00363026      -0.01313553 </v>
   <v>      -0.00725236       0.00441054      -0.01440984 </v>
   <v>      -0.00243149      -0.00144637      -0.00839094 </v>
   <v>       0.00519563      -0.00427712      -0.00625265 </v>
   <v>       0.00178005      -0.00499128       0.00820633 </v>
   <v>      -0.00040254      -0.00006248      -0.00149161 </v>
   <v>      -0.00071408      -0.00261082       0.00102187 </v>
   <v>       0.00218013      -0.00102817      -0.00103027 </v>
  </varray>
  <energy>
   <i name="e_fr_energy">   -182.94701748 </i>
   <i name="e_wo_entrp">   -182.97536626 </i>
   <i name="e_0_energy">      0.08504632 </i>
  </energy>
  <time name="totalsc">   52.87   53.16</time>
 </calculation>
 <calculation>
  <scstep>
   <time name="diag">    4.11    4.12</time>
   <time name="diis">   17.03   17.10</time>
   <time name="orth">    0.31    0.31</time>
   <time name="total">   26.00   26.12</time>
   <energy>
    <i name="alphaZ">    355.51581029 </i>
    <i name="ewald">  67491.84898674 </i>
    <i name="hartreedc"> -94795.99748527 </i>
    <i name="XCdc">   -112.14562684 </i>
    <i name="pawpsdc">  23075.74808070 </i>
    <i name="pawaedc"> -21866.31046440 </i>
    <i name="eentropy">      0.08623236 </i>
    <i name="bandstr">  -2555.78229362 </i>
    <i name="atom">  28224.09016519 </i>
    <i name="e_fr_energy">   -182.94659485 </i>
    <i name="e_wo_entrp">   -183.03282721 </i>
    <i name="e_0_energy">   -182.97533897 </i>
   </energy>
  </scstep>
  <scstep>
   <time name="diag">    4.10    4.13</time>
   <time name="diis">   20.54   20.63</time>
   <time name="orth">    0.32    0.32</time>
   <time name="total">   29.51   29.64</time>
   <energy>
    <i name="e_fr_energy">   -182.94687189 </i>
    <i name="e_wo_entrp">   -183.03401250 </i>
    <i name="e_0_energy">   -182.97591876 </i>
   </energy>
  </scstep>
  <scstep>
   <time name="diag">    4.05    4.08</time>
   <time name="diis">   10.10   10.14</time>
   <time name="orth">    0.32    0.32</time>
   <time name="total">   16.81   16.91</time>
   <energy>
    <i name="alphaZ">    355.51581029 </i>
    <i name="ewald">  67491.84898674 </i>
    <i name="hartreedc"> -94796.01467754 </i>
    <i name="XCdc">   -112.14507639 </i>
    <i name="pawpsdc">  23075.73525630 </i>
    <i name="pawaedc"> -21866.29421582 </i>
    <i name="eentropy">      0.08619205 </i>
    <i name="bandstr">  -2555.76924027 </i>
    <i name="atom">  28224.09016519 </i>
    <i name="e_fr_energy">   -182.94679945 </i>
    <i name="e_wo_entrp">   -183.03299150 </i>
    <i name="e_0_energy">   -182.97553014 </i>
   </energy>
  </scstep>
  <structure>
   <crystal>
    <varray name="basis" >
     <v>      18.00000000       0.00000000       0.00000000 </v>
     <v>       0.00000000      18.00000000       0.00000000 </v>
     <v>       0.00000000       0.00000000      18.00000000 </v>
    </varray>
    <i name="volume">   5832.00000000 </i>
    <varray name="rec_basis" >
     <v>       0.05555556       0.00000000       0.00000000 </v>
     <v>       0.00000000       0.05555556       0.00000000 </v>
     <v>       0.00000000       0.00000000       0.05555556 </v>
    </varray>
   </crystal>
   <varray name="positions" >
    <v>       0.72270109       0.57399155       0.49998522 </v>
    <v>       0.57443405       0.72209042       0.49943131 </v>
    <v>       0.57268969       0.42766886       0.49920947 </v>
    <v>       0.27857670       0.57046605       0.50047273 </v>
    <v>       0.42727766       0.72198314       0.50016208 </v>
    <v>       0.50063612       0.49694965       0.38943068 </v>
    <v>       0.28053201       0.42349988       0.49981418 </v>
    <v>       0.42381725       0.28021522       0.50022869 </v>
    <v>       0.72008310       0.42686768       0.50080972 </v>
    <v>       0.57092064       0.28078552       0.50099187 </v>
    <v>       0.66169782       0.50192253       0.61697154 </v>
    <v>       0.33937334       0.49806231       0.61601901 </v>
    <v>       0.50152975       0.66141751       0.61473820 </v>
    <v>       0.49770607       0.33916166       0.61850572 </v>
    <v>       0.65010060       0.65002430       0.60788801 </v>
    <v>       0.35336587       0.64603472       0.60713330 </v>
    <v>       0.34995194       0.35004947       0.61011314 </v>
    <v>       0.64532698       0.35427307       0.60918514 </v>
    <v>       0.66216972       0.50005723       0.38385302 </v>
    <v>       0.33986043       0.49755147       0.38472787 </v>
    <v>       0.50036098       0.66183650       0.38574106 </v>
    <v>       0.49793659       0.33968821       0.38305105 </v>
    <v>       0.65174914       0.64960047       0.39334593 </v>
    <v>       0.34985712       0.64730812       0.39497070 </v>
    <v>       0.35026809       0.34876363       0.38913200 </v>
    <v>       0.64602700       0.35163962       0.39175422 </v>
    <v>       0.57675507       0.57768931       0.71390522 </v>
    <v>       0.42734908       0.57369804       0.71122493 </v>
    <v>       0.42332099       0.42435924       0.71528559 </v>
    <v>       0.57316228       0.42790494       0.71401485 </v>
    <v>       0.57528612       0.57730296       0.28977342 </v>
    <v>       0.42576166       0.57609416       0.29048647 </v>
    <v>       0.42125380       0.42391901       0.28116141 </v>
    <v>       0.57787777       0.42490499       0.28201435 </v>
    <v>       0.50091933       0.50003989       0.60689497 </v>
    <v>       0.42677229       0.42598645       0.49920080 </v>
    <v>       0.42788653       0.57233365       0.49927525 </v>
    <v>       0.57470530       0.57385859       0.49909687 </v>
   </varray>
  </structure>
  <varray name="forces" >
   <v>      -0.00066942       0.00945281       0.00097692 </v>
   <v>       0.00404174       0.00077353       0.00422407 </v>
   <v>      -0.00845259       0.00667865      -0.00144161 </v>
   <v>       0.00199621      -0.00474888       0.00741083 </v>
   <v>       0.00016001      -0.00086312       0.01034504 </v>
   <v>      -0.00259516       0.00556335      -0.01190123 </v>
   <v>      -0.00059497      -0.00360976      -0.00754165 </v>
   <v>      -0.00950630      -0.00226529      -0.01009192 </v>
   <v>       0.00232480       0.01166219       0.01016442 </v>
   <v>      -0.01531122      -0.00051771       0.00462062 </v>
   <v>      -0.00168562       0.01766967       0.00118001 </v>
   <v>       0.00319638      -0.00388406      -0.00198239 </v>
   <v>       0.00963713      -0.00499523       0.00107273 </v>
   <v>      -0.01493210      -0.00158237       0.00108228 </v>
   <v>       0.01050620       0.01554399      -0.00542627 </v>
   <v>       0.00647868      -0.00046764      -0.00036085 </v>
   <v>      -0.00325017      -0.00414808       0.00094179 </v>
   <v>      -0.01189093       0.01412164       0.00671820 </v>
   <v>       0.01048404      -0.00081990      -0.00040399 </v>
   <v>      -0.00286325      -0.00081113       0.00001721 </v>
   <v>      -0.00678373      -0.01181471      -0.00398524 </v>
   <v>      -0.00455406      -0.00568918      -0.01122918 </v>
   <v>       0.00119780       0.00419134       0.00377810 </v>
   <v>      -0.00108758       0.00241808       0.00872256 </v>
   <v>      -0.00001263      -0.00390656      -0.00135044 </v>
   <v>      -0.00476703      -0.00132101       0.01279374 </v>
   <v>       0.01862204       0.01051702      -0.00321257 </v>
   <v>       0.00982020      -0.01027367      -0.00115716 </v>
   <v>      -0.00649857      -0.01472201       0.00739286 </v>
   <v>      -0.01938678       0.01571189       0.00844260 </v>
   <v>       0.00018837      -0.00100896       0.00659555 </v>
   <v>      -0.00187633       0.00216300       0.00176238 </v>
   <v>       0.00684434       0.00863489       0.00589507 </v>
   <v>       0.00001224      -0.00177618       0.01623894 </v>
   <v>       0.01040359      -0.00420201      -0.03202037 </v>
   <v>       0.00212046      -0.01558707      -0.00598903 </v>
   <v>       0.00627254      -0.01664872      -0.01103686 </v>
   <v>       0.01241168      -0.00943878      -0.01124517 </v>
  </varray>
  <energy>
   <i name="e_fr_energy">   -182.94679945 </i>
   <i name="e_wo_entrp">   -182.97553014 </i>
   <i name="e_0_energy">      0.08619205 </i>
  </energy>
  <time name="totalsc">   89.52   89.98</time>
 </calculation>
 <calculation>
  <scstep>
   <time name="diag">    4.04    4.05</time>
   <time name="diis">    9.71    9.75</time>
   <time name="orth">    0.32    0.32</time>
   <time name="total">   18.61   18.68</time>
   <energy>
    <i name="alphaZ">    355.51581029 </i>
    <i name="ewald">  67491.84898674 </i>
    <i name="hartreedc"> -94796.02113142 </i>
    <i name="XCdc">   -112.14508288 </i>
    <i name="pawpsdc">  23075.72308806 </i>
    <i name="pawaedc"> -21866.28148179 </i>
    <i name="eentropy">      0.08650105 </i>
    <i name="bandstr">  -2555.76365106 </i>
    <i name="atom">  28224.09016519 </i>
    <i name="e_fr_energy">   -182.94679582 </i>
    <i name="e_wo_entrp">   -183.03329687 </i>
    <i name="e_0_energy">   -182.97562951 </i>
   </energy>
  </scstep>
  <scstep>
   <time name="diag">    4.07    4.08</time>
   <time name="diis">   10.26   10.36</time>
   <time name="orth">    0.32    0.32</time>
   <time name="total">   19.17   19.32</time>
   <energy>
    <i name="e_fr_energy">   -182.94714184 </i>
    <i name="e_wo_entrp">   -183.03311041 </i>
    <i name="e_0_energy">   -182.97579803 </i>
   </energy>
  </scstep>
  <scstep>
   <time name="diag">    4.09    4.11</time>
   <time name="diis">   10.34   10.39</time>
   <time name="orth">    0.31    0.32</time>
   <time name="total">   19.31   19.41</time>
   <energy>
    <i name="e_fr_energy">   -182.94683408 </i>
    <i name="e_wo_entrp">   -183.03331418 </i>
    <i name="e_0_energy">   -182.97566078 </i>
   </energy>
  </scstep>
  <scstep>
   <time name="diag">    4.09    4.11</time>
   <time name="diis">   10.00   10.05</time>
   <time name="orth">    0.31    0.32</time>
   <time name="total">   16.76   16.85</time>
   <energy>
    <i name="alphaZ">    355.51581029 </i>
    <i name="ewald">  67491.84898674 </i>
    <i name="hartreedc"> -94796.03610686 </i>
    <i name="XCdc">   -112.14502274 </i>
    <i name="pawpsdc">  23075.69350435 </i>
    <i name="pawaedc"> -21866.25058476 </i>
    <i name="eentropy">      0.08636263 </i>
    <i name="bandstr">  -2555.74989347 </i>
    <i name="atom">  28224.09016519 </i>
    <i name="e_fr_energy">   -182.94677864 </i>
    <i name="e_wo_entrp">   -183.03314127 </i>
    <i name="e_0_energy">   -182.97556618 </i>
   </energy>
  </scstep>
  <structure>
   <crystal>
    <varray name="basis" >
     <v>      18.00000000       0.00000000       0.00000000 </v>
     <v>       0.00000000      18.00000000       0.00000000 </v>
     <v>       0.00000000       0.00000000      18.00000000 </v>
    </varray>
    <i name="volume">   5832.00000000 </i>
    <varray name="rec_basis" >
     <v>       0.05555556       0.00000000       0.00000000 </v>
     <v>       0.00000000       0.05555556       0.00000000 </v>
     <v>       0.00000000       0.00000000       0.05555556 </v>
    </varray>
   </crystal>
   <varray name="positions" >
    <v>       0.72270109       0.57399155       0.49998522 </v>
    <v>       0.57443405       0.72209042       0.49943131 </v>
    <v>       0.57268969       0.42766886       0.49920947 </v>
    <v>       0.27857670       0.57046605       0.50047273 </v>
    <v>       0.42727766       0.72198314       0.50016208 </v>
    <v>       0.50063612       0.49694965       0.38943068 </v>
    <v>       0.28053201       0.42349988       0.49981418 </v>
    <v>       0.42381725       0.28021522       0.50022869 </v>
    <v>       0.72008310       0.42686768       0.50080972 </v>
    <v>       0.57092064       0.28078552       0.50099187 </v>
    <v>       0.66169782       0.50192253       0.61697154 </v>
    <v>       0.33937334       0.49806231       0.61601901 </v>
    <v>       0.50152975       0.66141751       0.61473820 </v>
    <v>       0.49770607       0.33916166       0.61850572 </v>
    <v>       0.65010060       0.65002430       0.60788801 </v>
    <v>       0.35336587       0.64603472       0.60713330 </v>
    <v>       0.34995194       0.35004947       0.61011314 </v>
    <v>       0.64532698       0.35427307       0.60918514 </v>
    <v>       0.66216972       0.50005723       0.38385302 </v>
    <v>       0.33986043       0.49755147       0.38472787 </v>
    <v>       0.50036098       0.66183650       0.38574106 </v>
    <v>       0.49793659       0.33968821       0.38305105 </v>
    <v>       0.65174914       0.64960047       0.39334593 </v>
    <v>       0.34985712       0.64730812       0.39497070 </v>
    <v>       0.35026809       0.34876363       0.38913200 </v>
    <v>       0.64602700       0.35163962       0.39175422 </v>
    <v>       0.57675507       0.57768931       0.71390522 </v>
    <v>       0.42734908       0.57369804       0.71122493 </v>
    <v>       0.42332099       0.42435924       0.71528559 </v>
    <v>       0.57316228       0.42790494       0.71401485 </v>
    <v>       0.57528612       0.57730296       0.28977342 </v>
    <v>       0.42576166       0.57609416       0.29048647 </v>
    <v>       0.42125380       0.42391901       0.28116141 </v>
    <v>       0.57787777       0.42490499       0.28201435 </v>
    <v>       0.50091933       0.50003989       0.60689497 </v>
    <v>       0.42677229       0.42598645       0.49920080 </v>
    <v>       0.42788653       0.57233365       0.49927525 </v>
    <v>       0.57470530       0.57385859       0.49909687 </v>
   </varray>
  </structure>
  <varray name="forces" >
   <v>       0.00226253       0.00687702       0.00010715 </v>
   <v>       0.00123470       0.00063079       0.00190945 </v>
   <v>      -0.00530075       0.00465402       0.00038576 </v>
   <v>       0.00346983      -0.00281898       0.00408811 </v>
   <v>       0.00079196      -0.00329768       0.00556746 </v>
   <v>      -0.00244417       0.00400943      -0.00690207 </v>
   <v>      -0.00110149      -0.00103903      -0.00352445 </v>
   <v>      -0.00647984      -0.00347848      -0.00499939 </v>
   <v>       0.00228868       0.00453200       0.00580540 </v>
   <v>      -0.00668287      -0.00070639       0.00300323 </v>
   <v>       0.00015125       0.00831684       0.00160157 </v>
   <v>       0.00246052      -0.00121820      -0.00190123 </v>
   <v>       0.00365180      -0.00297600      -0.00055072 </v>
   <v>      -0.00769920      -0.00105674       0.00080057 </v>
   <v>       0.00720426       0.01074612      -0.00186928 </v>
   <v>       0.00644782      -0.00319764       0.00005745 </v>
   <v>      -0.00193031      -0.00255963       0.00074428 </v>
   <v>      -0.00655876       0.00705810       0.00371522 </v>
   <v>       0.00615324      -0.00055619      -0.00115417 </v>
   <v>      -0.00181828       0.00140772       0.00040122 </v>
   <v>      -0.00461233      -0.00727795      -0.00204408 </v>
   <v>      -0.00137688      -0.00466118      -0.00604084 </v>
   <v>       0.00115474       0.00330631       0.00134931 </v>
   <v>       0.00096158      -0.00021609       0.00564035 </v>
   <v>      -0.00192553      -0.00294426      -0.00180873 </v>
   <v>      -0.00168776      -0.00110503       0.00646680 </v>
   <v>       0.00953915       0.00645486      -0.00086914 </v>
   <v>       0.00482864      -0.00528987      -0.00381039 </v>
   <v>      -0.00383242      -0.00705974       0.00304425 </v>
   <v>      -0.01088308       0.00843415       0.00436060 </v>
   <v>      -0.00039877       0.00024986       0.00160423 </v>
   <v>      -0.00068018       0.00230987       0.00210790 </v>
   <v>       0.00155161       0.00253780      -0.00115754 </v>
   <v>       0.00162267      -0.00163793       0.00438629 </v>
   <v>       0.00427149      -0.00359148      -0.01230694 </v>
   <v>       0.00169696      -0.00377159      -0.00152938 </v>
   <v>       0.00027407      -0.00538039      -0.00338276 </v>
   <v>       0.00339514      -0.00568440      -0.00329546 </v>
  </varray>
  <energy>
   <i name="e_fr_energy">   -182.94677864 </i>
   <i name="e_wo_entrp">   -182.97556618 </i>
   <i name="e_0_energy">      0.08636263 </i>
  </energy>
