Pt cube particle                        
           1
    18.000000    0.000000    0.000000
     0.000000   18.000000    0.000000
     0.000000    0.000000   18.000000
   Pt   Pd
  32   6
Direct configuration=     1
   0.72415987  0.57367709  0.49999884
   0.57367748  0.72416476  0.49999896
   0.57433976  0.42564820  0.49999771
   0.27584718  0.57366508  0.50000102
   0.42633392  0.72415229  0.50000050
   0.49999163  0.49999846  0.39510135
   0.27584506  0.42633293  0.50000053
   0.42633278  0.27584919  0.49999961
   0.72415965  0.42632488  0.49999934
   0.57367347  0.27583777  0.49999958
   0.66139785  0.50000291  0.61403403
   0.33859673  0.49999821  0.61404334
   0.50000485  0.66140186  0.61404044
   0.49999876  0.33859700  0.61404026
   0.64886196  0.64886231  0.60622248
   0.35115009  0.64885073  0.60622329
   0.35114542  0.35114654  0.60622383
   0.64885517  0.35114461  0.60622041
   0.66139838  0.49999881  0.38596471
   0.33859854  0.49999905  0.38596026
   0.50000385  0.66140334  0.38595872
   0.50000369  0.33859956  0.38596150
   0.64886010  0.64885942  0.39377423
   0.35115184  0.64884871  0.39377816
   0.35115095  0.35115082  0.39377660
   0.64885984  0.35114035  0.39377625
   0.57516716  0.57516805  0.71035430
   0.42483370  0.57516629  0.71035524
   0.42482849  0.42483027  0.71035654
   0.57516215  0.42483732  0.71034915
   0.57516540  0.57516346  0.28964734
   0.42483436  0.57516557  0.28964991
   0.42483466  0.42483341  0.28964981
   0.57516653  0.42483369  0.28964740
   0.49998814  0.49999905  0.60489762
   0.42563785  0.42564770  0.49999960
   0.42564235  0.57434859  0.49999975
   0.57434040  0.57435174  0.49999737
Direct configuration=     2
   0.72417314  0.57370284  0.49999178
   0.57367096  0.72414325  0.49998883
   0.57434001  0.42564615  0.49997601
   0.27584682  0.57367958  0.49999510
   0.42633918  0.72414602  0.49999009
   0.49998902  0.49997015  0.39501987
   0.27586481  0.42633447  0.49999955
   0.42630574  0.27583445  0.50000057
   0.72414810  0.42632462  0.49999674
   0.57368908  0.27584250  0.50000218
   0.66142351  0.50001721  0.61407888
   0.33857888  0.49999357  0.61405974
   0.50000185  0.66142745  0.61404464
   0.49997655  0.33857623  0.61409630
   0.64885445  0.64885884  0.60622987
   0.35116170  0.64884466  0.60623053
   0.35115137  0.35115905  0.60622151
   0.64884934  0.35115907  0.60622054
   0.66144031  0.50001367  0.38596248
   0.33857478  0.49999406  0.38598756
   0.49999782  0.66143540  0.38596257
   0.49998002  0.33856154  0.38599808
   0.64890257  0.64886572  0.39377864
   0.35111406  0.64885465  0.39378169
   0.35114782  0.35112209  0.39379394
   0.64885948  0.35111788  0.39379534
   0.57516442  0.57516353  0.71036121
   0.42484326  0.57515607  0.71034875
   0.42483256  0.42483119  0.71035689
   0.57516140  0.42483623  0.71036412
   0.57512688  0.57518995  0.28967785
   0.42487530  0.57519124  0.28968921
   0.42476418  0.42481677  0.28954945
   0.57524205  0.42481392  0.28953223
   0.49998614  0.50000767  0.60490240
   0.42565305  0.42566368  0.49998166
   0.42563380  0.57435620  0.50001798
   0.57433559  0.57434843  0.50001521
Direct configuration=     3
   0.72421295  0.57378010  0.49997061
   0.57365139  0.72407870  0.49995843
   0.57434075  0.42564000  0.49991092
   0.27584573  0.57372307  0.49997735
   0.42635496  0.72412720  0.49995886
   0.49998118  0.49988521  0.39477545
   0.27592406  0.42633910  0.49999659
   0.42622463  0.27579025  0.50000345
   0.72411347  0.42632387  0.49998893
   0.57373592  0.27585668  0.50000997
   0.66150047  0.50006012  0.61421344
   0.33852532  0.49997963  0.61410893
   0.49999284  0.66150420  0.61405723
   0.49990989  0.33851391  0.61426441
   0.64883193  0.64884846  0.60625204
   0.35119655  0.64882646  0.60625227
   0.35116925  0.35119657  0.60621456
   0.64883185  0.35120245  0.60622092
   0.66156608  0.50005824  0.38595578
   0.33850350  0.49997908  0.38606947
   0.49997972  0.66153157  0.38597412
   0.49990903  0.33844749  0.38610783
   0.64903001  0.64888462  0.39379184
   0.35100072  0.64887250  0.39379228
   0.35113841  0.35103589  0.39384594
   0.64885840  0.35105048  0.39385263
   0.57515620  0.57514997  0.71038194
   0.42487194  0.57512540  0.71032929
   0.42484479  0.42483398  0.71035794
   0.57515913  0.42483297  0.71040904
   0.57501133  0.57526943  0.28976939
   0.42499811  0.57526824  0.28980710
   0.42455272  0.42476686  0.28924835
   0.57546864  0.42475463  0.28918673
   0.49998015  0.50003352  0.60491674
   0.42569865  0.42571163  0.49992785
   0.42560816  0.57437903  0.50007268
   0.57432118  0.57433849  0.50006870
Direct configuration=     4
   0.72429257  0.57393461  0.49992828
   0.57361226  0.72394962  0.49989764
   0.57434223  0.42562771  0.49978074
   0.27584356  0.57381006  0.49994185
   0.42638651  0.72408955  0.49989640
   0.49996550  0.49971532  0.39428661
   0.27604257  0.42634834  0.49999069
   0.42606240  0.27570185  0.50000920
   0.72404421  0.42632235  0.49997331
   0.57382958  0.27588506  0.50002555
   0.66165441  0.50014593  0.61448255
   0.33841821  0.49995176  0.61420731
   0.49997482  0.66165772  0.61408242
   0.49977658  0.33838929  0.61460063
   0.64878688  0.64882769  0.60629639
   0.35126623  0.64879005  0.60629574
   0.35120500  0.35127160  0.60620065
   0.64879687  0.35128921  0.60622169
   0.66181762  0.50014739  0.38594237
   0.33836093  0.49994913  0.38623329
   0.49994354  0.66172390  0.38599721
   0.49976703  0.33821938  0.38632731
   0.64928488  0.64892242  0.39381826
   0.35077405  0.64890819  0.39381346
   0.35111960  0.35086351  0.39394995
   0.64885622  0.35091566  0.39396719
   0.57513977  0.57512284  0.71042341
   0.42492929  0.57506407  0.71029036
   0.42486924  0.42483955  0.71036004
   0.57515460  0.42482645  0.71049886
   0.57478023  0.57542837  0.28995248
   0.42524373  0.57542225  0.29004288
   0.42412982  0.42466705  0.28864614
   0.57592180  0.42463604  0.28849571
   0.49996817  0.50008522  0.60494543
   0.42578986  0.42580754  0.49982024
   0.42555689  0.57442471  0.50018208
   0.57429236  0.57431862  0.50017568
Direct configuration=     5
   0.72445182  0.57424363  0.49984360
   0.57353399  0.72369144  0.49977605
   0.57434519  0.42560313  0.49952037
   0.27583922  0.57398404  0.49987085
   0.42644961  0.72401427  0.49977148
   0.49993413  0.49937555  0.39330893
   0.27627958  0.42636682  0.49997887
   0.42573793  0.27552505  0.50002071
   0.72390569  0.42631931  0.49994208
   0.57401692  0.27594180  0.50005672
   0.66196228  0.50031756  0.61502078
   0.33820398  0.49989601  0.61440408
   0.49993880  0.66196475  0.61413279
   0.49950996  0.33814004  0.61527307
   0.64869678  0.64878614  0.60638508
   0.35140561  0.64871725  0.60638268
   0.35127650  0.35142167  0.60617285
   0.64872691  0.35146273  0.60622322
   0.66232071  0.50032568  0.38591555
   0.33807580  0.49988922  0.38656092
   0.49987117  0.66210858  0.38604340
   0.49948303  0.33776316  0.38676628
   0.64979462  0.64899802  0.39387109
   0.35032069  0.64897957  0.39385581
   0.35108198  0.35051873  0.39415797
   0.64885188  0.35064603  0.39419631
   0.57510690  0.57506858  0.71050634
   0.42504400  0.57494142  0.71021249
   0.42491813  0.42485070  0.71036423
   0.57514553  0.42481340  0.71067851
   0.57431803  0.57574626  0.29031865
   0.42573497  0.57573027  0.29051444
   0.42328400  0.42446743  0.28744174
   0.57682812  0.42439886  0.28711368
   0.49994419  0.50018862  0.60500279
   0.42597226  0.42599935  0.49960501
   0.42545434  0.57451605  0.50040089
   0.57423472  0.57427887  0.50038966
Direct configuration=     6
   0.72449452  0.57432650  0.49982090
   0.57351301  0.72362221  0.49974344
   0.57434599  0.42559654  0.49945055
   0.27583806  0.57403069  0.49985181
   0.42646653  0.72399408  0.49973798
   0.49992572  0.49928444  0.39304676
   0.27634314  0.42637177  0.49997571
   0.42565093  0.27547764  0.50002379
   0.72386854  0.42631850  0.49993371
   0.57406716  0.27595702  0.50006508
   0.66204484  0.50036359  0.61516511
   0.33814653  0.49988107  0.61445684
   0.49992913  0.66204708  0.61414630
   0.49943847  0.33807320  0.61545339
   0.64867262  0.64877500  0.60640886
   0.35144298  0.64869772  0.60640600
   0.35129567  0.35146191  0.60616539
   0.64870815  0.35150927  0.60622363
   0.66245561  0.50037349  0.38590836
   0.33799934  0.49987316  0.38664878
   0.49985176  0.66221173  0.38605578
   0.49940688  0.33764082  0.38688400
   0.64993131  0.64901830  0.39388525
   0.35019912  0.64899871  0.39386717
   0.35107189  0.35042628  0.39421375
   0.64885072  0.35057373  0.39425776
   0.57509809  0.57505403  0.71052858
   0.42507477  0.57490852  0.71019161
   0.42493125  0.42485368  0.71036536
   0.57514310  0.42480990  0.71072668
   0.57419409  0.57583151  0.29041684
   0.42586670  0.57581287  0.29064089
   0.42305719  0.42441390  0.28711877
   0.57707115  0.42433526  0.28674308
   0.49993776  0.50021635  0.60501817
   0.42602117  0.42605078  0.49954729
   0.42542684  0.57454055  0.50045956
   0.57421926  0.57426822  0.50044704
Direct configuration=     7
   0.72452090  0.57439339  0.49986754
   0.57353006  0.72351450  0.49967837
   0.57424555  0.42576459  0.49937028
   0.27577215  0.57410989  0.49989194
   0.42643504  0.72399402  0.49968589
   0.50001265  0.49883099  0.39287926
   0.27643600  0.42637235  0.50007080
   0.42559564  0.27543177  0.50022979
   0.72375056  0.42644599  0.50004239
   0.57399389  0.27599861  0.50027783
   0.66221992  0.50037742  0.61525002
   0.33802365  0.49989691  0.61452641
   0.49994803  0.66219261  0.61423177
   0.49946192  0.33791250  0.61553300
   0.64866038  0.64878097  0.60649940
   0.35143700  0.64870274  0.60651204
   0.35131927  0.35152535  0.60614172
   0.64858475  0.35164983  0.60626801
   0.66246742  0.50031871  0.38575568
   0.33810314  0.49978853  0.38655462
   0.49985970  0.66236368  0.38611887
   0.49937741  0.33781273  0.38668873
   0.65009391  0.64905011  0.39397051
   0.35000316  0.64903067  0.39393977
   0.35108522  0.35036991  0.39414463
   0.64872616  0.35059682  0.39414991
   0.57506867  0.57506900  0.71062649
   0.42511448  0.57487585  0.71022840
   0.42491552  0.42487850  0.71044668
   0.57514080  0.42480793  0.71080200
   0.57427132  0.57595603  0.29059914
   0.42576987  0.57593039  0.29081837
   0.42274748  0.42427281  0.28679190
   0.57738471  0.42418289  0.28640180
   0.50002916  0.50012628  0.60500271
   0.42617701  0.42608807  0.49947114
   0.42552196  0.57448810  0.50027706
   0.57419553  0.57409855  0.50025514
Direct configuration=     8
   0.72460005  0.57459408  0.50000746
   0.57358121  0.72319140  0.49948314
   0.57394423  0.42626874  0.49912946
   0.27557443  0.57434746  0.50001231
   0.42634054  0.72399386  0.49952962
   0.50027342  0.49747064  0.39237676
   0.27671459  0.42637406  0.50035607
   0.42542978  0.27529418  0.50084778
   0.72339661  0.42682846  0.50036844
   0.57377408  0.27612340  0.50091610
   0.66274515  0.50041891  0.61550473
   0.33765499  0.49994443  0.61473512
   0.50000473  0.66262918  0.61448819
   0.49953227  0.33743043  0.61577184
   0.64862365  0.64879886  0.60677102
   0.35141906  0.64871780  0.60683018
   0.35139008  0.35171569  0.60607068
   0.64821456  0.35207153  0.60640116
   0.66250282  0.50015437  0.38529763
   0.33841452  0.49953465  0.38627217
   0.49988352  0.66281954  0.38630812
   0.49928899  0.33832846  0.38610292
   0.65058169  0.64914554  0.39422626
   0.34941530  0.64912657  0.39415757
   0.35112523  0.35020082  0.39393727
   0.64835249  0.35066610  0.39382636
   0.57498039  0.57511389  0.71092023
   0.42523363  0.57477784  0.71033875
   0.42486836  0.42495293  0.71069063
   0.57513390  0.42480200  0.71102794
   0.57450303  0.57632961  0.29114601
   0.42547938  0.57628293  0.29135082
   0.42181837  0.42384957  0.28581126
   0.57832540  0.42372580  0.28537795
   0.50030335  0.49985604  0.60495634
   0.42664451  0.42619995  0.49924269
   0.42580732  0.57433074  0.49972957
   0.57412434  0.57358956  0.49967944
Direct configuration=     9
   0.72448057  0.57460187  0.50007994
   0.57361859  0.72300153  0.49953571
   0.57416984  0.42603870  0.49918558
   0.27565789  0.57429391  0.50007914
   0.42626680  0.72392793  0.49960579
   0.50031371  0.49716846  0.39174017
   0.27696519  0.42650630  0.50038170
   0.42547447  0.27543660  0.50095296
   0.72309024  0.42705692  0.50043522
   0.57352685  0.27642002  0.50101346
   0.66282538  0.50056157  0.61562567
   0.33767344  0.50008290  0.61476822
   0.50001078  0.66262497  0.61451818
   0.49952397  0.33738734  0.61591816
   0.64853244  0.64872456  0.60686153
   0.35152054  0.64863919  0.60687932
   0.35150802  0.35186641  0.60616839
   0.64801259  0.35232665  0.60649184
   0.66251170  0.50002051  0.38510730
   0.33859930  0.49940863  0.38620961
   0.49985690  0.66278711  0.38624521
   0.49928072  0.33851738  0.38581670
   0.65078992  0.64917488  0.39441330
   0.34917899  0.64914890  0.39438316
   0.35121023  0.35015833  0.39381568
   0.64806030  0.35075654  0.39371511
   0.57497199  0.57512548  0.71101265
   0.42528722  0.57473306  0.71032682
   0.42486035  0.42496989  0.71073098
   0.57505599  0.42488672  0.71115216
   0.57457609  0.57636531  0.29142553
   0.42539407  0.57627179  0.29165374
   0.42156744  0.42372622  0.28546423
   0.57854197  0.42362093  0.28503603
   0.50040167  0.49981500  0.60506849
   0.42655030  0.42597552  0.49929849
   0.42588046  0.57428212  0.49948114
   0.57425307  0.57358987  0.49940270
Direct configuration=    10
   0.72440625  0.57460671  0.50012502
   0.57364184  0.72288343  0.49956840
   0.57431017  0.42589561  0.49922050
   0.27570979  0.57426059  0.50012071
   0.42622093  0.72388692  0.49965317
   0.50033877  0.49698051  0.39134421
   0.27712107  0.42658855  0.50039764
   0.42550226  0.27552519  0.50101839
   0.72289968  0.42719902  0.50047675
   0.57337306  0.27660451  0.50107402
   0.66287528  0.50065030  0.61570090
   0.33768492  0.50016904  0.61478881
   0.50001454  0.66262235  0.61453683
   0.49951881  0.33736053  0.61600917
   0.64847571  0.64867834  0.60691784
   0.35158367  0.64859029  0.60690988
   0.35158137  0.35196016  0.60622916
   0.64788696  0.35248533  0.60654824
   0.66251723  0.49993726  0.38498891
   0.33871423  0.49933024  0.38617070
   0.49984033  0.66276695  0.38620607
   0.49927557  0.33863488  0.38563868
   0.65091944  0.64919312  0.39452964
   0.34903201  0.64916279  0.39452348
   0.35126309  0.35013191  0.39374005
   0.64787856  0.35081279  0.39364591
   0.57496677  0.57513269  0.71107014
   0.42532055  0.57470521  0.71031940
   0.42485537  0.42498043  0.71075607
   0.57500754  0.42493942  0.71122943
   0.57462153  0.57638752  0.29159939
   0.42534100  0.57626486  0.29184215
   0.42141137  0.42364950  0.28524837
   0.57867668  0.42355571  0.28482336
   0.50046282  0.49978948  0.60513824
   0.42649171  0.42583592  0.49933319
   0.42592596  0.57425188  0.49932662
   0.57433314  0.57359006  0.49923057
Direct configuration=    11
   0.72424764  0.57458358  0.50015618
   0.57359099  0.72276785  0.49968727
   0.57417000  0.42590349  0.49923861
   0.27590289  0.57412141  0.50015897
   0.42622696  0.72377071  0.49978957
   0.50035869  0.49681236  0.39121241
   0.27733470  0.42672288  0.50029689
   0.42554396  0.27577915  0.50086595
   0.72273916  0.42733390  0.50042529
   0.57315740  0.27686324  0.50092003
   0.66276256  0.50085615  0.61586314
   0.33788255  0.50030748  0.61478651
   0.50001256  0.66240730  0.61444308
   0.49944168  0.33748662  0.61625466
   0.64838971  0.64862526  0.60698819
   0.35172800  0.64850576  0.60685086
   0.35161450  0.35203186  0.60648607
   0.64785501  0.35259829  0.60680220
   0.66260290  0.49985750  0.38489711
   0.33880548  0.49922522  0.38624001
   0.49977961  0.66264330  0.38616093
   0.49920313  0.33864747  0.38545863
   0.65110878  0.64926375  0.39464851
   0.34887835  0.64919918  0.39476764
   0.35132041  0.35004516  0.39359690
   0.64771130  0.35079518  0.39351520
   0.57500006  0.57517405  0.71120378
   0.42535987  0.57469999  0.71034755
   0.42484166  0.42499985  0.71084259
   0.57490725  0.42508625  0.71143809
   0.57471732  0.57640260  0.29161833
   0.42524530  0.57622237  0.29190641
   0.42136276  0.42358427  0.28493377
   0.57865051  0.42356626  0.28450318
   0.50052570  0.49985197  0.60499244
   0.42659812  0.42575281  0.49939328
   0.42609455  0.57404588  0.49921824
   0.57432799  0.57345963  0.49909152
Direct configuration=    12
   0.72398157  0.57454479  0.50020846
   0.57350568  0.72257397  0.49988669
   0.57393486  0.42591670  0.49926899
   0.27622680  0.57388793  0.50022316
   0.42623707  0.72357577  0.50001837
   0.50039210  0.49653029  0.39099131
   0.27769306  0.42694823  0.50012787
   0.42561391  0.27620517  0.50061023
   0.72246990  0.42756014  0.50033898
   0.57279561  0.27729726  0.50066172
   0.66257348  0.50120146  0.61613528
   0.33821406  0.50053973  0.61478265
   0.50000924  0.66204656  0.61428580
   0.49931229  0.33769814  0.61666647
   0.64824545  0.64853620  0.60710620
   0.35197012  0.64836395  0.60675186
   0.35167008  0.35215215  0.60691703
   0.64780142  0.35278779  0.60722822
   0.66274661  0.49972372  0.38474311
   0.33895856  0.49904904  0.38635629
   0.49967774  0.66243589  0.38608519
   0.49908162  0.33866860  0.38515659
   0.65142639  0.64938222  0.39484791
   0.34862058  0.64926023  0.39517724
   0.35141655  0.34989966  0.39335677
   0.64743072  0.35076563  0.39329594
   0.57505591  0.57524343  0.71142797
   0.42542583  0.57469122  0.71039478
   0.42481866  0.42503243  0.71098773
   0.57473901  0.42533257  0.71178813
   0.57487801  0.57642790  0.29165011
   0.42508478  0.57615110  0.29201419
   0.42128123  0.42347486  0.28440602
   0.57860659  0.42358395  0.28396608
   0.50063119  0.49995680  0.60474787
   0.42677662  0.42561339  0.49949408
   0.42637737  0.57370032  0.49903643
   0.57431934  0.57324083  0.49885827
Direct configuration=    13
   0.72382613  0.57456393  0.50028223
   0.57341984  0.72246064  0.49989135
   0.57387334  0.42600737  0.49922794
   0.27639502  0.57384194  0.50031751
   0.42631315  0.72343888  0.50005715
   0.50043439  0.49643551  0.39094594
   0.27795129  0.42674795  0.50009978
   0.42547152  0.27660527  0.50048965
   0.72219148  0.42749098  0.50037721
   0.57273833  0.27764817  0.50059759
   0.66237972  0.50115393  0.61624339
   0.33850277  0.50042869  0.61482129
   0.50010169  0.66166841  0.61422711
   0.49935992  0.33782176  0.61687860
   0.64823709  0.64864737  0.60721400
   0.35203543  0.64835304  0.60670658
   0.35149690  0.35211565  0.60719893
   0.64773499  0.35291085  0.60753519
   0.66279398  0.49969486  0.38456124
   0.33912525  0.49893099  0.38622366
   0.49967684  0.66225578  0.38614717
   0.49895776  0.33863119  0.38474382
   0.65143917  0.64948031  0.39482552
   0.34864626  0.64927425  0.39531836
   0.35133282  0.34980689  0.39300456
   0.64737427  0.35076759  0.39303431
   0.57499286  0.57536871  0.71176456
   0.42557255  0.57469752  0.71054812
   0.42482200  0.42527073  0.71131901
   0.57458992  0.42562476  0.71210653
   0.57497580  0.57645551  0.29161317
   0.42496471  0.57609179  0.29202411
   0.42133379  0.42347680  0.28407914
   0.57839754  0.42372667  0.28361833
   0.50073253  0.50000737  0.60494888
   0.42688533  0.42557049  0.49947237
   0.42656995  0.57344850  0.49887463
   0.57435368  0.57307896  0.49866108
Direct configuration=    14
   0.72353403  0.57459991  0.50042084
   0.57325854  0.72224767  0.49990011
   0.57375771  0.42617774  0.49915079
   0.27671113  0.57375551  0.50049480
   0.42645611  0.72318165  0.50013002
   0.50051388  0.49625742  0.39086069
   0.27843654  0.42637161  0.50004700
   0.42520394  0.27735713  0.50026306
   0.72166830  0.42736100  0.50044905
   0.57263069  0.27830757  0.50047707
   0.66201562  0.50106460  0.61644655
   0.33904528  0.50022002  0.61489388
   0.50027541  0.66095782  0.61411681
   0.49944942  0.33805407  0.61727723
   0.64822138  0.64885627  0.60741658
   0.35215815  0.64833254  0.60662149
   0.35117147  0.35204705  0.60772864
   0.64761017  0.35314210  0.60811203
   0.66288300  0.49964063  0.38421950
   0.33943847  0.49870916  0.38597443
   0.49967514  0.66191732  0.38626364
   0.49872501  0.33856090  0.38396816
   0.65146320  0.64966463  0.39478344
   0.34869451  0.64930060  0.39558354
   0.35117548  0.34963256  0.39234271
   0.64726818  0.35077128  0.39254267
   0.57487439  0.57560412  0.71239707
   0.42584826  0.57470935  0.71083628
   0.42482829  0.42571854  0.71194153
   0.57430976  0.42617384  0.71270485
   0.57515956  0.57650740  0.29154375
   0.42473908  0.57598034  0.29204275
   0.42143256  0.42348044  0.28346488
   0.57800470  0.42399484  0.28296487
   0.50092298  0.50010241  0.60532661
   0.42708962  0.42548987  0.49943156
   0.42693183  0.57297529  0.49857058
   0.57441820  0.57277478  0.49829053
Direct configuration=    15
   0.72337205  0.57455531  0.50049222
   0.57328620  0.72216039  0.49986169
   0.57378466  0.42611931  0.49910061
   0.27689631  0.57358382  0.50055875
   0.42649314  0.72304508  0.50012584
   0.50056783  0.49620602  0.39052302
   0.27868796  0.42618597  0.50002622
   0.42509750  0.27775996  0.50028429
   0.72142900  0.42725750  0.50048104
   0.57257894  0.27866807  0.50050331
   0.66188840  0.50109044  0.61649824
   0.33922951  0.50009410  0.61487744
   0.50034360  0.66074267  0.61405733
   0.49936994  0.33816991  0.61739740
   0.64828886  0.64890139  0.60752829
   0.35222974  0.64822290  0.60664814
   0.35115194  0.35195584  0.60800259
   0.64745603  0.35320028  0.60834159
   0.66291254  0.49964200  0.38407580
   0.33947659  0.49860480  0.38589080
   0.49970340  0.66179446  0.38626233
   0.49870155  0.33852619  0.38363578
   0.65140840  0.64970612  0.39465420
   0.34881104  0.64921868  0.39555986
   0.35100063  0.34958075  0.39194170
   0.64720310  0.35085876  0.39225602
   0.57495465  0.57581906  0.71276819
   0.42587346  0.57483105  0.71099088
   0.42477013  0.42579479  0.71229286
   0.57424071  0.42636154  0.71304999
   0.57510232  0.57654847  0.29148810
   0.42479185  0.57597676  0.29202918
   0.42147530  0.42354100  0.28319606
   0.57782542  0.42416006  0.28276717
   0.50099619  0.50004736  0.60554176
   0.42709921  0.42541606  0.49940447
   0.42692696  0.57287609  0.49859249
   0.57457496  0.57277702  0.49829436
Direct configuration=    16
   0.72312692  0.57448783  0.50060025
   0.57332806  0.72202830  0.49980354
   0.57382545  0.42603089  0.49902466
   0.27717656  0.57332399  0.50065551
   0.42654918  0.72283841  0.50011951
   0.50064949  0.49612822  0.39001202
   0.27906843  0.42590503  0.49999477
   0.42493643  0.27836957  0.50031642
   0.72106685  0.42710087  0.50052947
   0.57250062  0.27921363  0.50054301
   0.66169587  0.50112955  0.61657647
   0.33950830  0.49990355  0.61485255
   0.50044680  0.66041707  0.61396730
   0.49924965  0.33834523  0.61757925
   0.64839096  0.64896967  0.60769735
   0.35233808  0.64805697  0.60668847
   0.35112238  0.35181781  0.60841716
   0.64722275  0.35328832  0.60868898
   0.66295723  0.49964408  0.38385833
   0.33953426  0.49844688  0.38576424
   0.49974616  0.66160851  0.38626035
   0.49866604  0.33847366  0.38313277
   0.65132547  0.64976890  0.39445861
   0.34898740  0.64909470  0.39552402
   0.35073602  0.34950235  0.39133484
   0.64710461  0.35099114  0.39182224
   0.57507612  0.57614433  0.71332983
   0.42591160  0.57501522  0.71122483
   0.42468212  0.42591018  0.71282454
   0.57413620  0.42664559  0.71357231
   0.57501569  0.57661063  0.29140388
   0.42487171  0.57597134  0.29200863
   0.42153999  0.42363265  0.28278925
   0.57755410  0.42441010  0.28246798
   0.50110699  0.49996406  0.60586736
   0.42711372  0.42530435  0.49936347
   0.42691960  0.57272598  0.49862567
   0.57481218  0.57278042  0.49830016
Direct configuration=    17
   0.72298920  0.57432337  0.50058463
   0.57349887  0.72199530  0.49977207
   0.57362564  0.42619946  0.49888064
   0.27732162  0.57297286  0.50062627
   0.42656252  0.72274003  0.50010448
   0.50068251  0.49602439  0.38996655
   0.27929499  0.42569860  0.49997305
   0.42492606  0.27875703  0.50035068
   0.72093878  0.42701590  0.50053839
   0.57235990  0.27948503  0.50058315
   0.66157908  0.50125458  0.61668500
   0.33960790  0.49977401  0.61492090
   0.50053902  0.66040325  0.61394463
   0.49905237  0.33852477  0.61775034
   0.64854081  0.64896281  0.60787240
   0.35237218  0.64788118  0.60682799
   0.35121791  0.35167060  0.60876507
   0.64697791  0.35331027  0.60893492
   0.66299635  0.49969719  0.38379291
   0.33946811  0.49834541  0.38571196
   0.49980146  0.66163083  0.38624697
   0.49862483  0.33845996  0.38299256
   0.65132091  0.64971450  0.39423677
   0.34908498  0.64888903  0.39533287
   0.35058745  0.34945968  0.39090484
   0.64700778  0.35114215  0.39149899
   0.57528479  0.57640653  0.71362843
   0.42589637  0.57514265  0.71134251
   0.42455460  0.42581608  0.71318981
   0.57414463  0.42674745  0.71390161
   0.57495044  0.57675137  0.29112752
   0.42499065  0.57605288  0.29178425
   0.42146067  0.42370922  0.28249171
   0.57754597  0.42452188  0.28227958
   0.50117069  0.49983063  0.60600360
   0.42721356  0.42540350  0.49917875
   0.42704269  0.57256352  0.49879048
   0.57476582  0.57272211  0.49848274
Direct configuration=    18
   0.72283472  0.57413889  0.50056712
   0.57369047  0.72195827  0.49973677
   0.57340152  0.42638854  0.49871909
   0.27748432  0.57257900  0.50059346
   0.42657748  0.72262969  0.50008762
   0.50071954  0.49590793  0.38991554
   0.27954912  0.42546704  0.49994869
   0.42491442  0.27919163  0.50038910
   0.72079512  0.42692059  0.50054841
   0.57220205  0.27978946  0.50062817
   0.66144808  0.50139482  0.61680674
   0.33971962  0.49962871  0.61499756
   0.50064246  0.66038775  0.61391921
   0.49883109  0.33872615  0.61794226
   0.64870890  0.64895512  0.60806875
   0.35241042  0.64768400  0.60698449
   0.35132507  0.35150548  0.60915531
   0.64670328  0.35333489  0.60921080
   0.66304023  0.49975677  0.38371953
   0.33939390  0.49823159  0.38565331
   0.49986348  0.66165586  0.38623196
   0.49857861  0.33844460  0.38283528
   0.65131579  0.64965348  0.39398794
   0.34919443  0.64865833  0.39511845
   0.35042080  0.34941181  0.39042251
   0.64689918  0.35131154  0.39113642
   0.57551886  0.57670063  0.71396335
   0.42587929  0.57528558  0.71147450
   0.42441156  0.42571053  0.71359953
   0.57415408  0.42686171  0.71427099
   0.57487724  0.57690923  0.29081754
   0.42512407  0.57614435  0.29153255
   0.42137169  0.42379510  0.28215797
   0.57753686  0.42464727  0.28206825
   0.50124214  0.49968096  0.60615643
   0.42732554  0.42551471  0.49897155
   0.42718076  0.57238129  0.49897534
   0.57471381  0.57265671  0.49868754
Direct configuration=    19
   0.72267262  0.57391138  0.50044082
   0.57393037  0.72187686  0.49973743
   0.57341650  0.42653437  0.49869267
   0.27767445  0.57215158  0.50049426
   0.42664028  0.72245319  0.50007451
   0.50067207  0.49613078  0.38969267
   0.27985269  0.42507566  0.50002554
   0.42487598  0.27955103  0.50033570
   0.72055105  0.42680508  0.50061729
   0.57205615  0.28006436  0.50066716
   0.66136544  0.50137959  0.61698629
   0.33976634  0.49940666  0.61525427
   0.50077181  0.66053175  0.61404544
   0.49872162  0.33894835  0.61822569
   0.64894958  0.64904370  0.60822198
   0.35240723  0.64749177  0.60708922
   0.35134125  0.35139064  0.60944060
   0.64633213  0.35350430  0.60931197
   0.66296230  0.49989373  0.38364481
   0.33941411  0.49820349  0.38541313
   0.49993977  0.66168834  0.38621945
   0.49843548  0.33848838  0.38276052
   0.65133044  0.64942791  0.39377392
   0.34932039  0.64824614  0.39491946
   0.35039718  0.34933063  0.39003417
   0.64671232  0.35152164  0.39093971
   0.57564037  0.57688539  0.71409797
   0.42607564  0.57516797  0.71145259
   0.42429298  0.42565706  0.71401275
   0.57413459  0.42700099  0.71450702
   0.57483008  0.57702917  0.29050548
   0.42531706  0.57613756  0.29127361
   0.42118725  0.42393339  0.28186701
   0.57767800  0.42476544  0.28186805
   0.50123413  0.49957922  0.60661934
   0.42720408  0.42567419  0.49874344
   0.42736090  0.57233549  0.49913253
   0.57453539  0.57278281  0.49886157
Direct configuration=    20
   0.72253243  0.57371463  0.50033158
   0.57413784  0.72180646  0.49973801
   0.57342945  0.42666048  0.49866983
   0.27783887  0.57178194  0.50040847
   0.42669458  0.72230056  0.50006318
   0.50063102  0.49632352  0.38949992
   0.28011522  0.42473718  0.50009200
   0.42484273  0.27986184  0.50028952
   0.72033998  0.42670518  0.50067686
   0.57192997  0.28030209  0.50070087
   0.66129398  0.50136641  0.61714156
   0.33980675  0.49921463  0.61547627
   0.50088367  0.66065627  0.61415461
   0.49862694  0.33914050  0.61847081
   0.64915772  0.64912031  0.60835449
   0.35240447  0.64732553  0.60717980
   0.35135525  0.35129132  0.60968732
   0.64601115  0.35365082  0.60939946
   0.66289490  0.50001218  0.38358019
   0.33943160  0.49817919  0.38520541
   0.50000575  0.66171643  0.38620864
   0.49831170  0.33852624  0.38269586
   0.65134311  0.64923284  0.39358883
   0.34942933  0.64788967  0.39474737
   0.35037674  0.34926043  0.38969833
   0.64655072  0.35170335  0.39076959
   0.57574545  0.57704517  0.71421438
   0.42624545  0.57506626  0.71143363
   0.42419043  0.42561082  0.71437011
   0.57411773  0.42712145  0.71471115
   0.57478929  0.57713291  0.29023560
   0.42548397  0.57613168  0.29104968
   0.42102774  0.42405298  0.28161539
   0.57780006  0.42486764  0.28169491
   0.50122719  0.49949124  0.60701968
   0.42709903  0.42581212  0.49854616
   0.42751668  0.57229588  0.49926848
   0.57438110  0.57289186  0.49901206
Direct configuration=    21
   0.72232379  0.57362246  0.50029628
   0.57423049  0.72170020  0.49975272
   0.57308014  0.42702354  0.49878117
   0.27810876  0.57145649  0.50038929
   0.42686286  0.72208220  0.50007052
   0.50069571  0.49653139  0.38930512
   0.28032284  0.42436234  0.50016528
   0.42469803  0.28005688  0.50026101
   0.72020877  0.42659150  0.50076524