  32  32   0   0
  0.1280000E+03  0.1600000E-08  0.1600000E-08  0.1600000E-08  0.2100000E-14
   3000.00000000000     
  CAR 
 Pt cube particle                        
      1.41196199    -13.70044212  301     -3.76980153      1.00000000
    -13.700  0.0000E+00  0.0000E+00
    -13.650  0.0000E+00  0.0000E+00
    -13.600  0.0000E+00  0.0000E+00
    -13.549  0.0000E+00  0.0000E+00
    -13.499  0.0000E+00  0.0000E+00
    -13.449  0.0000E+00  0.0000E+00
    -13.398  0.0000E+00  0.0000E+00
    -13.348 -0.2142E-27 -0.1089E-28
    -13.297 -0.1688E-25 -0.8633E-27
    -13.247 -0.8570E-24 -0.4416E-25
    -13.197 -0.3848E-22 -0.1990E-23
    -13.146 -0.1520E-20 -0.7890E-22
    -13.096 -0.5283E-19 -0.2753E-20
    -13.046 -0.1613E-17 -0.8443E-19
    -12.995 -0.4328E-16 -0.2276E-17
    -12.945 -0.1020E-14 -0.5393E-16
    -12.894 -0.2071E-13 -0.1103E-14
    -12.844 -0.3703E-12 -0.1987E-13
    -12.794 -0.5875E-11 -0.3177E-12
    -12.743 -0.8161E-10 -0.4454E-11
    -12.693 -0.9926E-09 -0.5476E-10
    -12.643 -0.1056E-07 -0.5901E-09
    -12.592 -0.9830E-07 -0.5572E-08
    -12.542 -0.7993E-06 -0.4607E-07
    -12.491 -0.5672E-05 -0.3334E-06
    -12.441 -0.3509E-04 -0.2110E-05
    -12.391 -0.1889E-03 -0.1167E-04
    -12.340 -0.8832E-03 -0.5636E-04
    -12.290 -0.3575E-02 -0.2372E-03
    -12.240 -0.1248E-01 -0.8677E-03
    -12.189 -0.3731E-01 -0.2751E-02
    -12.139 -0.9453E-01 -0.7519E-02
    -12.088 -0.1992E+00 -0.1755E-01
    -12.038 -0.3354E+00 -0.3440E-01
    -11.988 -0.4047E+00 -0.5466E-01
    -11.937 -0.1872E+00 -0.6381E-01
    -11.887  0.6111E+00 -0.3260E-01
    -11.837  0.2175E+01  0.7736E-01
    -11.786  0.4337E+01  0.2958E+00
    -11.736  0.6487E+01  0.6217E+00
    -11.685  0.7804E+01  0.1013E+01
    -11.635  0.7728E+01  0.1399E+01
    -11.585  0.6315E+01  0.1714E+01
    -11.534  0.4181E+01  0.1921E+01
    -11.484  0.2111E+01  0.2025E+01
    -11.434  0.6326E+00  0.2056E+01
    -11.383 -0.1393E+00  0.2049E+01
    -11.333 -0.3810E+00  0.2030E+01
    -11.282 -0.3454E+00  0.2013E+01
    -11.232 -0.2143E+00  0.2002E+01
    -11.182 -0.6337E-01  0.1999E+01
    -11.131  0.1029E+00  0.2004E+01
    -11.081  0.3061E+00  0.2019E+01
    -11.031  0.5652E+00  0.2047E+01
    -10.980  0.8886E+00  0.2090E+01
    -10.930  0.1278E+01  0.2154E+01
    -10.879  0.1733E+01  0.2240E+01
    -10.829  0.2252E+01  0.2352E+01
    -10.779  0.2827E+01  0.2493E+01
    -10.728  0.3456E+01  0.2665E+01
    -10.678  0.4153E+01  0.2873E+01
    -10.628  0.4959E+01  0.3121E+01
    -10.577  0.5914E+01  0.3417E+01
    -10.527  0.7020E+01  0.3768E+01
    -10.476  0.8221E+01  0.4179E+01
    -10.426  0.9419E+01  0.4651E+01
    -10.376  0.1051E+02  0.5177E+01
    -10.325  0.1141E+02  0.5747E+01
    -10.275  0.1208E+02  0.6352E+01
    -10.225  0.1253E+02  0.6978E+01
    -10.174  0.1283E+02  0.7620E+01
    -10.124  0.1309E+02  0.8275E+01
    -10.073  0.1342E+02  0.8946E+01
    -10.023  0.1386E+02  0.9639E+01
     -9.973  0.1441E+02  0.1036E+02
     -9.922  0.1503E+02  0.1111E+02
     -9.872  0.1569E+02  0.1189E+02
     -9.822  0.1638E+02  0.1271E+02
     -9.771  0.1707E+02  0.1357E+02
     -9.721  0.1776E+02  0.1445E+02
     -9.670  0.1852E+02  0.1538E+02
     -9.620  0.1947E+02  0.1636E+02
     -9.570  0.2070E+02  0.1739E+02
     -9.519  0.2218E+02  0.1850E+02
     -9.469  0.2367E+02  0.1968E+02
     -9.419  0.2488E+02  0.2093E+02
     -9.368  0.2570E+02  0.2221E+02
     -9.318  0.2628E+02  0.2353E+02
     -9.267  0.2693E+02  0.2487E+02
     -9.217  0.2789E+02  0.2627E+02
     -9.167  0.2918E+02  0.2772E+02
     -9.116  0.3059E+02  0.2925E+02
     -9.066  0.3182E+02  0.3084E+02
     -9.016  0.3265E+02  0.3247E+02
     -8.965  0.3302E+02  0.3412E+02
     -8.915  0.3302E+02  0.3577E+02
     -8.864  0.3285E+02  0.3742E+02
     -8.814  0.3276E+02  0.3905E+02
     -8.764  0.3294E+02  0.4070E+02
     -8.713  0.3344E+02  0.4237E+02
     -8.663  0.3421E+02  0.4409E+02
     -8.613  0.3512E+02  0.4584E+02
     -8.562  0.3602E+02  0.4764E+02
     -8.512  0.3681E+02  0.4948E+02
     -8.461  0.3744E+02  0.5136E+02
     -8.411  0.3790E+02  0.5325E+02
     -8.361  0.3820E+02  0.5516E+02
     -8.310  0.3840E+02  0.5708E+02
     -8.260  0.3858E+02  0.5901E+02
     -8.210  0.3880E+02  0.6095E+02
     -8.159  0.3907E+02  0.6290E+02
     -8.109  0.3936E+02  0.6487E+02
     -8.058  0.3963E+02  0.6685E+02
     -8.008  0.3994E+02  0.6885E+02
     -7.958  0.4035E+02  0.7087E+02
     -7.907  0.4090E+02  0.7291E+02
     -7.857  0.4148E+02  0.7499E+02
     -7.807  0.4194E+02  0.7709E+02
     -7.756  0.4212E+02  0.7920E+02
     -7.706  0.4199E+02  0.8130E+02
     -7.655  0.4169E+02  0.8338E+02
     -7.605  0.4147E+02  0.8546E+02
     -7.555  0.4155E+02  0.8754E+02
     -7.504  0.4205E+02  0.8964E+02
     -7.454  0.4289E+02  0.9179E+02
     -7.404  0.4387E+02  0.9398E+02
     -7.353  0.4476E+02  0.9622E+02
     -7.303  0.4543E+02  0.9850E+02
     -7.252  0.4595E+02  0.1008E+03
     -7.202  0.4645E+02  0.1031E+03
     -7.152  0.4699E+02  0.1055E+03
     -7.101  0.4750E+02  0.1078E+03
     -7.051  0.4776E+02  0.1102E+03
     -7.001  0.4761E+02  0.1126E+03
     -6.950  0.4703E+02  0.1150E+03
     -6.900  0.4619E+02  0.1173E+03
     -6.849  0.4538E+02  0.1195E+03
     -6.799  0.4482E+02  0.1218E+03
     -6.749  0.4458E+02  0.1240E+03
     -6.698  0.4463E+02  0.1262E+03
     -6.648  0.4483E+02  0.1285E+03
     -6.598  0.4510E+02  0.1307E+03
     -6.547  0.4538E+02  0.1330E+03
     -6.497  0.4567E+02  0.1353E+03
     -6.446  0.4591E+02  0.1376E+03
     -6.396  0.4598E+02  0.1399E+03
     -6.346  0.4577E+02  0.1422E+03
     -6.295  0.4531E+02  0.1444E+03
     -6.245  0.4482E+02  0.1467E+03
     -6.195  0.4461E+02  0.1489E+03
     -6.144  0.4489E+02  0.1512E+03
     -6.094  0.4566E+02  0.1534E+03
     -6.043  0.4675E+02  0.1558E+03
     -5.993  0.4796E+02  0.1582E+03
     -5.943  0.4916E+02  0.1606E+03
     -5.892  0.5034E+02  0.1632E+03
     -5.842  0.5148E+02  0.1657E+03
     -5.792  0.5260E+02  0.1684E+03
     -5.741  0.5369E+02  0.1710E+03
     -5.691  0.5477E+02  0.1738E+03
     -5.640  0.5588E+02  0.1766E+03
     -5.590  0.5698E+02  0.1794E+03
     -5.540  0.5801E+02  0.1823E+03
     -5.489  0.5894E+02  0.1853E+03
     -5.439  0.5980E+02  0.1883E+03
     -5.389  0.6063E+02  0.1913E+03
     -5.338  0.6147E+02  0.1944E+03
     -5.288  0.6236E+02  0.1975E+03
     -5.237  0.6333E+02  0.2006E+03
     -5.187  0.6449E+02  0.2039E+03
     -5.137  0.6597E+02  0.2072E+03
     -5.086  0.6787E+02  0.2106E+03
     -5.036  0.7017E+02  0.2141E+03
     -4.986  0.7280E+02  0.2177E+03
     -4.935  0.7562E+02  0.2215E+03
     -4.885  0.7844E+02  0.2254E+03
     -4.834  0.8110E+02  0.2295E+03
     -4.784  0.8349E+02  0.2336E+03
     -4.734  0.8558E+02  0.2379E+03
     -4.683  0.8743E+02  0.2423E+03
     -4.633  0.8914E+02  0.2467E+03
     -4.583  0.9075E+02  0.2513E+03
     -4.532  0.9220E+02  0.2559E+03
     -4.482  0.9335E+02  0.2605E+03
     -4.432  0.9406E+02  0.2652E+03
     -4.381  0.9431E+02  0.2700E+03
     -4.331  0.9432E+02  0.2747E+03
     -4.280  0.9446E+02  0.2794E+03
     -4.230  0.9508E+02  0.2841E+03
     -4.180  0.9634E+02  0.2890E+03
     -4.129  0.9803E+02  0.2939E+03
     -4.079  0.9953E+02  0.2988E+03
     -4.029  0.9996E+02  0.3038E+03
     -3.978  0.9849E+02  0.3088E+03
     -3.928  0.9461E+02  0.3135E+03
     -3.877  0.8832E+02  0.3179E+03
     -3.827  0.8006E+02  0.3220E+03
     -3.777  0.7051E+02  0.3255E+03
     -3.726  0.6043E+02  0.3285E+03
     -3.676  0.5059E+02  0.3311E+03
     -3.626  0.4175E+02  0.3332E+03
     -3.575  0.3461E+02  0.3349E+03
     -3.525  0.2965E+02  0.3364E+03
     -3.474  0.2696E+02  0.3377E+03
     -3.424  0.2611E+02  0.3390E+03
     -3.374  0.2638E+02  0.3404E+03
     -3.323  0.2694E+02  0.3417E+03
     -3.273  0.2719E+02  0.3431E+03
     -3.223  0.2687E+02  0.3444E+03
     -3.172  0.2605E+02  0.3457E+03
     -3.122  0.2490E+02  0.3470E+03
     -3.071  0.2360E+02  0.3482E+03
     -3.021  0.2217E+02  0.3493E+03
     -2.971  0.2051E+02  0.3503E+03
     -2.920  0.1849E+02  0.3512E+03
     -2.870  0.1603E+02  0.3520E+03
     -2.820  0.1322E+02  0.3527E+03
     -2.769  0.1028E+02  0.3532E+03
     -2.719  0.7545E+01  0.3536E+03
     -2.668  0.5415E+01  0.3539E+03
     -2.618  0.4266E+01  0.3541E+03
     -2.568  0.4317E+01  0.3543E+03
     -2.517  0.5540E+01  0.3546E+03
     -2.467  0.7668E+01  0.3549E+03
     -2.417  0.1029E+02  0.3555E+03
     -2.366  0.1299E+02  0.3561E+03
     -2.316  0.1540E+02  0.3569E+03
     -2.265  0.1726E+02  0.3577E+03
     -2.215  0.1844E+02  0.3587E+03
     -2.165  0.1891E+02  0.3596E+03
     -2.114  0.1875E+02  0.3605E+03
     -2.064  0.1807E+02  0.3614E+03
     -2.014  0.1697E+02  0.3623E+03
     -1.963  0.1551E+02  0.3631E+03
     -1.913  0.1380E+02  0.3638E+03
     -1.862  0.1206E+02  0.3644E+03
     -1.812  0.1066E+02  0.3649E+03
     -1.762  0.1001E+02  0.3654E+03
     -1.711  0.1037E+02  0.3659E+03
     -1.661  0.1155E+02  0.3665E+03
     -1.611  0.1302E+02  0.3671E+03
     -1.560  0.1410E+02  0.3679E+03
     -1.510  0.1439E+02  0.3686E+03
     -1.459  0.1394E+02  0.3693E+03
     -1.409  0.1313E+02  0.3699E+03
     -1.359  0.1243E+02  0.3706E+03
     -1.308  0.1214E+02  0.3712E+03
     -1.258  0.1230E+02  0.3718E+03
     -1.208  0.1280E+02  0.3724E+03
     -1.157  0.1351E+02  0.3731E+03
     -1.107  0.1434E+02  0.3738E+03
     -1.056  0.1532E+02  0.3746E+03
     -1.006  0.1645E+02  0.3754E+03
     -0.956  0.1768E+02  0.3763E+03
     -0.905  0.1882E+02  0.3772E+03
     -0.855  0.1965E+02  0.3782E+03
     -0.805  0.2001E+02  0.3792E+03
     -0.754  0.1982E+02  0.3802E+03
     -0.704  0.1903E+02  0.3811E+03
     -0.653  0.1751E+02  0.3820E+03
     -0.603  0.1511E+02  0.3828E+03
     -0.553  0.1185E+02  0.3834E+03
     -0.502  0.8103E+01  0.3838E+03
     -0.452  0.4522E+01  0.3840E+03
     -0.402  0.1751E+01  0.3841E+03
     -0.351  0.8994E-01  0.3841E+03
     -0.301 -0.5836E+00  0.3841E+03
     -0.250 -0.6401E+00  0.3840E+03
     -0.200 -0.4516E+00  0.3840E+03
     -0.150 -0.2481E+00  0.3840E+03
     -0.099 -0.1123E+00  0.3840E+03
     -0.049 -0.4290E-01  0.3840E+03
      0.001 -0.1402E-01  0.3840E+03
      0.052 -0.3944E-02  0.3840E+03
      0.102 -0.9607E-03  0.3840E+03
      0.153 -0.2032E-03  0.3840E+03
      0.203 -0.3738E-04  0.3840E+03
      0.253 -0.5997E-05  0.3840E+03
      0.304 -0.8395E-06  0.3840E+03
      0.354 -0.1027E-06  0.3840E+03
      0.404 -0.1098E-07  0.3840E+03
      0.455 -0.1028E-08  0.3840E+03
      0.505 -0.8419E-10  0.3840E+03
      0.556 -0.6042E-11  0.3840E+03
      0.606 -0.3794E-12  0.3840E+03
      0.656 -0.2249E-13  0.3840E+03
      0.707  0.0000E+00  0.3840E+03
      0.757  0.0000E+00  0.3840E+03
      0.807  0.0000E+00  0.3840E+03
      0.858  0.0000E+00  0.3840E+03
      0.908  0.0000E+00  0.3840E+03
      0.959  0.0000E+00  0.3840E+03
      1.009  0.0000E+00  0.3840E+03
      1.059  0.0000E+00  0.3840E+03
      1.110  0.0000E+00  0.3840E+03
      1.160  0.0000E+00  0.3840E+03
      1.210  0.0000E+00  0.3840E+03
      1.261  0.0000E+00  0.3840E+03
      1.311  0.0000E+00  0.3840E+03
      1.362  0.0000E+00  0.3840E+03
      1.412  0.0000E+00  0.3840E+03
      1.41326787    -13.69897474  301     -3.75931462      1.00000000
    -13.699  0.0000E+00  0.0000E+00
    -13.649  0.0000E+00  0.0000E+00
    -13.598  0.0000E+00  0.0000E+00
    -13.548  0.0000E+00  0.0000E+00
    -13.497  0.0000E+00  0.0000E+00
    -13.447  0.0000E+00  0.0000E+00
    -13.397  0.0000E+00  0.0000E+00
    -13.346 -0.2633E-30 -0.1326E-31
    -13.296 -0.1492E-28 -0.7648E-30
    -13.246 -0.7554E-27 -0.3882E-28
    -13.195 -0.3364E-25 -0.1733E-26
    -13.145 -0.1317E-23 -0.6810E-25
    -13.094 -0.4538E-22 -0.2354E-23
    -13.044 -0.1374E-20 -0.7158E-22
    -12.994 -0.3658E-19 -0.1914E-20
    -12.943 -0.8560E-18 -0.4503E-19
    -12.893 -0.1760E-16 -0.9316E-18
    -12.843 -0.3069E-15 -0.1639E-16
    -12.792 -0.4877E-14 -0.2621E-15
    -12.742 -0.6767E-13 -0.3671E-14
    -12.691 -0.8238E-12 -0.4517E-13
    -12.641 -0.8790E-11 -0.4880E-12
    -12.591 -0.8216E-10 -0.4627E-11
    -12.540 -0.6720E-09 -0.3848E-10
    -12.490 -0.4805E-08 -0.2805E-09
    -12.440 -0.2999E-07 -0.1791E-08
    -12.389 -0.1631E-06 -0.1001E-07
    -12.339 -0.7712E-06 -0.4886E-07
    -12.288 -0.3159E-05 -0.2080E-06
    -12.238 -0.1116E-04 -0.7702E-06
    -12.188 -0.3376E-04 -0.2471E-05
    -12.137 -0.8648E-04 -0.6827E-05
    -12.087 -0.1839E-03 -0.1609E-04
    -12.037 -0.3113E-03 -0.3177E-04
    -11.986 -0.3741E-03 -0.5061E-04
    -11.936 -0.1597E-03 -0.5866E-04
    -11.886  0.6135E-03 -0.2775E-04
    -11.835  0.2106E-02  0.7836E-04
    -11.785  0.4116E-02  0.2857E-03
    -11.734  0.6000E-02  0.5879E-03
    -11.684  0.6961E-02  0.9385E-03
    -11.634  0.6540E-02  0.1268E-02
    -11.583  0.4942E-02  0.1517E-02
    -11.533  0.2887E-02  0.1662E-02
    -11.483  0.1134E-02  0.1719E-02
    -11.432  0.7210E-04  0.1723E-02
    -11.382 -0.3363E-03  0.1706E-02
    -11.331 -0.3539E-03  0.1688E-02
    -11.281 -0.2351E-03  0.1677E-02
    -11.231 -0.1214E-03  0.1670E-02
    -11.180 -0.5478E-04  0.1668E-02
    -11.130 -0.3244E-04  0.1666E-02
    -11.080 -0.4795E-04  0.1664E-02
    -11.029 -0.1061E-03  0.1658E-02
    -10.979 -0.2127E-03  0.1648E-02
    -10.928 -0.3376E-03  0.1631E-02
    -10.878 -0.3605E-03  0.1612E-02
    -10.828 -0.4522E-04  0.1610E-02
    -10.777  0.8783E-03  0.1654E-02
    -10.727  0.2496E-02  0.1780E-02
    -10.677  0.4481E-02  0.2006E-02
    -10.626  0.6106E-02  0.2313E-02
    -10.576  0.6634E-02  0.2648E-02
    -10.525  0.5862E-02  0.2943E-02
    -10.475  0.4372E-02  0.3163E-02
    -10.425  0.3197E-02  0.3324E-02
    -10.374  0.3137E-02  0.3482E-02
    -10.324  0.4248E-02  0.3696E-02
    -10.274  0.5904E-02  0.3994E-02
    -10.223  0.7327E-02  0.4363E-02
    -10.173  0.8089E-02  0.4770E-02
    -10.122  0.8189E-02  0.5183E-02
    -10.072  0.7803E-02  0.5576E-02
    -10.022  0.7143E-02  0.5935E-02
     -9.971  0.6595E-02  0.6268E-02
     -9.921  0.6771E-02  0.6609E-02
     -9.871  0.8137E-02  0.7019E-02
     -9.820  0.1048E-01  0.7546E-02
     -9.770  0.1283E-01  0.8193E-02
     -9.719  0.1413E-01  0.8904E-02
     -9.669  0.1403E-01  0.9611E-02
     -9.619  0.1312E-01  0.1027E-01
     -9.568  0.1243E-01  0.1090E-01
     -9.518  0.1269E-01  0.1154E-01
     -9.468  0.1396E-01  0.1224E-01
     -9.417  0.1566E-01  0.1303E-01
     -9.367  0.1698E-01  0.1388E-01
     -9.316  0.1739E-01  0.1476E-01
     -9.266  0.1693E-01  0.1561E-01
     -9.216  0.1619E-01  0.1643E-01
     -9.165  0.1587E-01  0.1723E-01
     -9.115  0.1640E-01  0.1805E-01
     -9.065  0.1775E-01  0.1895E-01
     -9.014  0.1957E-01  0.1993E-01
     -8.964  0.2141E-01  0.2101E-01
     -8.913  0.2284E-01  0.2216E-01
     -8.863  0.2343E-01  0.2334E-01
     -8.813  0.2294E-01  0.2450E-01
     -8.762  0.2149E-01  0.2558E-01
     -8.712  0.1970E-01  0.2657E-01
     -8.662  0.1857E-01  0.2751E-01
     -8.611  0.1903E-01  0.2847E-01
     -8.561  0.2137E-01  0.2954E-01
     -8.510  0.2493E-01  0.3080E-01
     -8.460  0.2838E-01  0.3223E-01
     -8.410  0.3044E-01  0.3376E-01
     -8.359  0.3068E-01  0.3531E-01
     -8.309  0.2971E-01  0.3680E-01
     -8.259  0.2879E-01  0.3825E-01
     -8.208  0.2879E-01  0.3970E-01
     -8.158  0.2943E-01  0.4119E-01
     -8.107  0.2951E-01  0.4267E-01
     -8.057  0.2801E-01  0.4408E-01
     -8.007  0.2537E-01  0.4536E-01
     -7.956  0.2356E-01  0.4655E-01
     -7.906  0.2487E-01  0.4780E-01
     -7.856  0.3012E-01  0.4932E-01
     -7.805  0.3773E-01  0.5122E-01
     -7.755  0.4443E-01  0.5346E-01
     -7.704  0.4727E-01  0.5584E-01
     -7.654  0.4553E-01  0.5813E-01
     -7.604  0.4102E-01  0.6020E-01
     -7.553  0.3668E-01  0.6205E-01
     -7.503  0.3468E-01  0.6379E-01
     -7.453  0.3538E-01  0.6558E-01
     -7.402  0.3767E-01  0.6747E-01
     -7.352  0.3997E-01  0.6949E-01
     -7.301  0.4116E-01  0.7156E-01
     -7.251  0.4103E-01  0.7363E-01
     -7.201  0.4029E-01  0.7566E-01
     -7.150  0.3994E-01  0.7767E-01
     -7.100  0.4059E-01  0.7971E-01
     -7.050  0.4194E-01  0.8183E-01
     -6.999  0.4305E-01  0.8399E-01
     -6.949  0.4313E-01  0.8617E-01
     -6.898  0.4216E-01  0.8829E-01
     -6.848  0.4064E-01  0.9034E-01
     -6.798  0.3904E-01  0.9230E-01
     -6.747  0.3746E-01  0.9419E-01
     -6.697  0.3593E-01  0.9600E-01
     -6.647  0.3475E-01  0.9775E-01
     -6.596  0.3444E-01  0.9949E-01
     -6.546  0.3526E-01  0.1013E+00
     -6.495  0.3681E-01  0.1031E+00
     -6.445  0.3822E-01  0.1050E+00
     -6.395  0.3887E-01  0.1070E+00
     -6.344  0.3885E-01  0.1090E+00
     -6.294  0.3875E-01  0.1109E+00
     -6.244  0.3908E-01  0.1129E+00
     -6.193  0.3968E-01  0.1149E+00
     -6.143  0.3987E-01  0.1169E+00
     -6.092  0.3907E-01  0.1189E+00
     -6.042  0.3740E-01  0.1207E+00
     -5.992  0.3580E-01  0.1225E+00
     -5.941  0.3546E-01  0.1243E+00
     -5.891  0.3719E-01  0.1262E+00
     -5.841  0.4080E-01  0.1283E+00
     -5.790  0.4518E-01  0.1305E+00
     -5.740  0.4880E-01  0.1330E+00
     -5.689  0.5059E-01  0.1355E+00
     -5.639  0.5063E-01  0.1381E+00
     -5.589  0.4997E-01  0.1406E+00
     -5.538  0.4984E-01  0.1431E+00
     -5.488  0.5071E-01  0.1457E+00
     -5.438  0.5220E-01  0.1483E+00
     -5.387  0.5366E-01  0.1510E+00
     -5.337  0.5475E-01  0.1538E+00
     -5.286  0.5545E-01  0.1566E+00
     -5.236  0.5568E-01  0.1594E+00
     -5.186  0.5521E-01  0.1621E+00
     -5.135  0.5397E-01  0.1649E+00
     -5.085  0.5243E-01  0.1675E+00
     -5.035  0.5152E-01  0.1701E+00
     -4.984  0.5208E-01  0.1727E+00
     -4.934  0.5434E-01  0.1755E+00
     -4.883  0.5774E-01  0.1784E+00
     -4.833  0.6136E-01  0.1815E+00
     -4.783  0.6451E-01  0.1847E+00
     -4.732  0.6714E-01  0.1881E+00
     -4.682  0.6972E-01  0.1916E+00
     -4.632  0.7276E-01  0.1953E+00
     -4.581  0.7631E-01  0.1991E+00
     -4.531  0.7994E-01  0.2031E+00
     -4.481  0.8303E-01  0.2073E+00
     -4.430  0.8503E-01  0.2116E+00
     -4.380  0.8570E-01  0.2159E+00
     -4.329  0.8515E-01  0.2202E+00
     -4.279  0.8375E-01  0.2244E+00
     -4.229  0.8193E-01  0.2286E+00
     -4.178  0.8009E-01  0.2326E+00
     -4.128  0.7866E-01  0.2366E+00
     -4.078  0.7818E-01  0.2405E+00
     -4.027  0.7918E-01  0.2445E+00
     -3.977  0.8167E-01  0.2486E+00
     -3.926  0.8469E-01  0.2529E+00
     -3.876  0.8643E-01  0.2572E+00
     -3.826  0.8499E-01  0.2615E+00
     -3.775  0.7938E-01  0.2655E+00
     -3.725  0.7007E-01  0.2690E+00
     -3.675  0.5871E-01  0.2720E+00
     -3.624  0.4747E-01  0.2744E+00
     -3.574  0.3824E-01  0.2763E+00
     -3.523  0.3206E-01  0.2779E+00
     -3.473  0.2897E-01  0.2794E+00
     -3.423  0.2819E-01  0.2808E+00
     -3.372  0.2847E-01  0.2822E+00
     -3.322  0.2858E-01  0.2837E+00
     -3.272  0.2763E-01  0.2851E+00
     -3.221  0.2543E-01  0.2863E+00
     -3.171  0.2243E-01  0.2875E+00
     -3.120  0.1950E-01  0.2884E+00
     -3.070  0.1745E-01  0.2893E+00
     -3.020  0.1673E-01  0.2902E+00
     -2.969  0.1720E-01  0.2910E+00
     -2.919  0.1809E-01  0.2919E+00
     -2.869  0.1824E-01  0.2929E+00
     -2.818  0.1665E-01  0.2937E+00
     -2.768  0.1316E-01  0.2944E+00
     -2.717  0.8547E-02  0.2948E+00
     -2.667  0.4132E-02  0.2950E+00
     -2.617  0.1063E-02  0.2951E+00
     -2.566 -0.1101E-03  0.2951E+00
     -2.516  0.5139E-03  0.2951E+00
     -2.466  0.2393E-02  0.2952E+00
     -2.415  0.4836E-02  0.2954E+00
     -2.365  0.7295E-02  0.2958E+00
     -2.314  0.9541E-02  0.2963E+00
     -2.264  0.1155E-01  0.2969E+00
     -2.214  0.1317E-01  0.2975E+00
     -2.163  0.1408E-01  0.2982E+00
     -2.113  0.1406E-01  0.2990E+00
     -2.063  0.1347E-01  0.2996E+00
     -2.012  0.1311E-01  0.3003E+00
     -1.962  0.1357E-01  0.3010E+00
     -1.911  0.1473E-01  0.3017E+00
     -1.861  0.1585E-01  0.3025E+00
     -1.811  0.1627E-01  0.3033E+00
     -1.760  0.1592E-01  0.3041E+00
     -1.710  0.1521E-01  0.3049E+00
     -1.660  0.1457E-01  0.3056E+00
     -1.609  0.1395E-01  0.3063E+00
     -1.559  0.1286E-01  0.3070E+00
     -1.508  0.1083E-01  0.3075E+00
     -1.458  0.7932E-02  0.3079E+00
     -1.408  0.4890E-02  0.3082E+00
     -1.357  0.2734E-02  0.3083E+00
     -1.307  0.2234E-02  0.3084E+00
     -1.257  0.3565E-02  0.3086E+00
     -1.206  0.6403E-02  0.3089E+00
     -1.156  0.1023E-01  0.3095E+00
     -1.105  0.1447E-01  0.3102E+00
     -1.055  0.1837E-01  0.3111E+00
     -1.005  0.2096E-01  0.3122E+00
     -0.954  0.2146E-01  0.3132E+00
     -0.904  0.1987E-01  0.3142E+00
     -0.854  0.1719E-01  0.3151E+00
     -0.803  0.1483E-01  0.3159E+00
     -0.753  0.1375E-01  0.3165E+00
     -0.702  0.1395E-01  0.3173E+00
     -0.652  0.1446E-01  0.3180E+00
     -0.602  0.1408E-01  0.3187E+00
     -0.551  0.1211E-01  0.3193E+00
     -0.501  0.8792E-02  0.3197E+00
     -0.451  0.5084E-02  0.3200E+00
     -0.400  0.2024E-02  0.3201E+00
     -0.350  0.1536E-03  0.3201E+00
     -0.299 -0.6022E-03  0.3201E+00
     -0.249 -0.6647E-03  0.3200E+00
     -0.199 -0.4617E-03  0.3200E+00
     -0.148 -0.2482E-03  0.3200E+00
     -0.098 -0.1097E-03  0.3200E+00
     -0.048 -0.4095E-04  0.3200E+00
      0.003 -0.1307E-04  0.3200E+00
      0.053 -0.3600E-05  0.3200E+00
      0.104 -0.8595E-06  0.3200E+00
      0.154 -0.1785E-06  0.3200E+00
      0.204 -0.3233E-07  0.3200E+00
      0.255 -0.5116E-08  0.3200E+00
      0.305 -0.7082E-09  0.3200E+00
      0.355 -0.8584E-10  0.3200E+00
      0.406 -0.9118E-11  0.3200E+00
      0.456 -0.8494E-12  0.3200E+00
      0.507 -0.6943E-13  0.3200E+00
      0.557 -0.4981E-14  0.3200E+00
      0.607 -0.3086E-15  0.3200E+00
      0.658 -0.2204E-16  0.3200E+00
      0.708  0.0000E+00  0.3200E+00
      0.758  0.0000E+00  0.3200E+00
      0.809  0.0000E+00  0.3200E+00
      0.859  0.0000E+00  0.3200E+00
      0.910  0.0000E+00  0.3200E+00
      0.960  0.0000E+00  0.3200E+00
      1.010  0.0000E+00  0.3200E+00
      1.061  0.0000E+00  0.3200E+00
      1.111  0.0000E+00  0.3200E+00
      1.161  0.0000E+00  0.3200E+00
      1.212  0.0000E+00  0.3200E+00
      1.262  0.0000E+00  0.3200E+00
      1.313  0.0000E+00  0.3200E+00
      1.363  0.0000E+00  0.3200E+00
      1.413  0.0000E+00  0.3200E+00
