   32   32 1200    1
  0.1280000E+03  0.1600000E-08  0.1600000E-08  0.1600000E-08  0.2100000E-14
   3000.00000000000     
  CAR 
 Pt cube particle                        
    320      1    192
 
  0.0000000E+00  0.0000000E+00  0.0000000E+00  0.1000000E+01
    1      -11.698975   1.000000
    2      -10.602358   1.000000
    3      -10.252487   1.000000
    4      -10.044433   1.000000
    5       -9.787152   1.000000
    6       -9.735639   1.000000
    7       -9.573478   1.000000
    8       -9.432604   1.000000
    9       -9.355318   1.000000
   10       -9.270432   1.000000
   11       -9.135296   1.000000
   12       -9.057878   1.000000
   13       -8.956632   1.000000
   14       -8.904824   1.000000
   15       -8.828141   1.000000
   16       -8.761915   1.000000
   17       -8.677945   1.000000
   18       -8.545492   1.000000
   19       -8.499532   1.000000
   20       -8.463208   1.000000
   21       -8.383556   1.000000
   22       -8.350369   1.000000
   23       -8.321822   1.000000
   24       -8.194551   1.000000
   25       -8.143775   1.000000
   26       -8.132993   1.000000
   27       -8.061215   1.000000
   28       -8.032161   1.000000
   29       -7.906610   1.000000
   30       -7.817456   1.000000
   31       -7.787914   1.000000
   32       -7.753902   1.000000
   33       -7.741800   1.000000
   34       -7.720929   1.000000
   35       -7.696171   1.000000
   36       -7.672205   1.000000
   37       -7.588748   1.000000
   38       -7.519268   1.000000
   39       -7.491430   1.000000
   40       -7.444638   1.000000
   41       -7.379716   1.000000
   42       -7.364189   1.000000
   43       -7.322698   1.000000
   44       -7.281337   1.000000
   45       -7.238320   1.000000
   46       -7.218703   1.000000
   47       -7.154692   1.000000
   48       -7.095506   1.000000
   49       -7.053391   1.000000
   50       -7.033755   1.000000
   51       -6.995304   1.000000
   52       -6.976298   1.000000
   53       -6.924354   1.000000
   54       -6.879401   1.000000
   55       -6.816474   1.000000
   56       -6.799467   1.000000
   57       -6.751641   1.000000
   58       -6.696382   1.000000
   59       -6.678659   1.000000
   60       -6.601012   1.000000
   61       -6.539310   1.000000
   62       -6.504850   1.000000
   63       -6.456813   1.000000
   64       -6.440258   1.000000
   65       -6.398713   1.000000
   66       -6.329355   1.000000
   67       -6.287367   1.000000
   68       -6.274221   1.000000
   69       -6.177825   1.000000
   70       -6.161856   1.000000
   71       -6.136387   1.000000
   72       -6.112712   1.000000
   73       -6.044343   1.000000
   74       -5.992645   1.000000
   75       -5.940298   1.000000
   76       -5.911858   1.000000
   77       -5.841970   1.000000
   78       -5.792714   1.000000
   79       -5.782884   1.000000
   80       -5.751840   1.000000
   81       -5.712593   1.000000
   82       -5.699565   1.000000
   83       -5.671406   1.000000
   84       -5.609485   1.000000
   85       -5.586954   1.000000
   86       -5.570290   1.000000
   87       -5.479719   1.000000
   88       -5.468345   1.000000
   89       -5.454924   1.000000
   90       -5.441518   1.000000
   91       -5.403297   1.000000
   92       -5.367509   1.000000
   93       -5.310928   1.000000
   94       -5.293635   1.000000
   95       -5.278135   1.000000
   96       -5.227736   1.000000
   97       -5.206404   1.000000
   98       -5.187642   1.000000
   99       -5.158797   1.000000
  100       -5.132012   1.000000
  101       -5.073261   1.000000
  102       -5.063575   1.000000
  103       -5.021271   1.000000
  104       -4.987419   1.000000
  105       -4.947292   1.000000
  106       -4.927279   1.000000
  107       -4.891612   1.000000
  108       -4.866990   1.000000
  109       -4.826103   1.000000
  110       -4.822636   1.000000
  111       -4.800353   1.000000
  112       -4.768955   1.000000
  113       -4.754139   1.000000
  114       -4.722702   1.000000
  115       -4.681463   1.000000
  116       -4.671361   1.000000
  117       -4.637690   1.000000
  118       -4.616748   1.000000
  119       -4.594760   1.000000
  120       -4.575370   1.000000
  121       -4.568140   1.000000
  122       -4.561383   1.000000
  123       -4.508796   1.000001
  124       -4.483964   1.000002
  125       -4.466569   1.000003
  126       -4.459300   1.000004
  127       -4.438177   1.000009
  128       -4.429267   1.000012
  129       -4.401261   1.000028
  130       -4.398598   1.000030
  131       -4.356909   1.000100
  132       -4.332788   1.000192
  133       -4.322623   1.000251
  134       -4.311430   1.000334
  135       -4.281176   1.000701
  136       -4.259261   1.001159
  137       -4.240455   1.001746
  138       -4.225984   1.002360
  139       -4.207458   1.003406
  140       -4.190958   1.004640
  141       -4.138530   1.011021
  142       -4.127338   1.012938
  143       -4.115715   1.015133
  144       -4.100418   1.018308
  145       -4.092203   1.020121
  146       -4.064849   1.026402
  147       -4.019759   1.034627
  148       -4.005429   1.035453
  149       -3.983605   1.033574
  150       -3.953783   1.022014
  151       -3.928472   1.000852
  152       -3.924799   0.996735
  153       -3.907549   0.973430
  154       -3.898951   0.959237
  155       -3.867239   0.891080
  156       -3.850573   0.845157
  157       -3.846039   0.831495
  158       -3.809498   0.705112
  159       -3.798777   0.663430
  160       -3.778470   0.580644
  161       -3.758937   0.498402
  162       -3.723080   0.349434
  163       -3.706553   0.285129
  164       -3.674962   0.175843
  165       -3.647910   0.100203
  166       -3.585309  -0.005858
  167       -3.519909  -0.035335
  168       -3.477331  -0.031404
  169       -3.419060  -0.018492
  170       -3.330196  -0.004857
  171       -3.307723  -0.003186
  172       -3.271311  -0.001507
  173       -3.162254  -0.000101
  174       -3.089859  -0.000012
  175       -2.958125   0.000000
  176       -2.875257   0.000000
  177       -2.813474   0.000000
  178       -2.372677   0.000000
  179       -2.188632   0.000000
  180       -2.135199   0.000000
  181       -1.948582   0.000000
  182       -1.866528   0.000000
  183       -1.769362   0.000000
  184       -1.631035   0.000000
  185       -1.524731   0.000000
  186       -1.185136   0.000000
  187       -1.030578   0.000000
  188       -0.997001   0.000000
  189       -0.944577   0.000000
  190       -0.800489   0.000000
  191       -0.655983   0.000000
  192       -0.586732   0.000000
