 running on    8 total cores
 distrk:  each k-point on    8 cores,    1 groups
 distr:  one band on    4 cores,    2 groups
 using from now: INCAR     
 vasp.5.4.1 24Jun15 (build Jan 06 2016 13:19:48) gamma-only                     
  
 POSCAR found :  1 types and      32 ions
 scaLAPACK will be used
 LDA part: xc-table for Ceperly-Alder, standard interpolation
 POSCAR found :  1 types and      32 ions

 ----------------------------------------------------------------------------- 
|                                                                             |
|           W    W    AA    RRRRR   N    N  II  N    N   GGGG   !!!           |
|           W    W   A  A   R    R  NN   N  II  NN   N  G    G  !!!           |
|           W    W  A    A  R    R  N N  N  II  N N  N  G       !!!           |
|           W WW W  AAAAAA  RRRRR   N  N N  II  N  N N  G  GGG   !            |
|           WW  WW  A    A  R   R   N   NN  II  N   NN  G    G                |
|           W    W  A    A  R    R  N    N  II  N    N   GGGG   !!!           |
|                                                                             |
|      VASP found     96 degrees of freedom                                   |
|      the temperature will equal 2*E(kin)/ (degrees of freedom)              |
|      this differs from previous releases, where T was 2*E(kin)/(3 NIONS).   |
|      The new definition is more consistent                                  |
|                                                                             |
 ----------------------------------------------------------------------------- 

 POSCAR, INCAR and KPOINTS ok, starting setup
 WARNING: small aliasing (wrap around) errors must be expected
 FFT: planning ...
 WAVECAR not read
 prediction of wavefunctions initialized - no I/O
 entering main loop
       N       E                     dE             d eps       ncg     rms          rms(c)
DAV:   1     0.237682811651E+04    0.23768E+04   -0.77303E+04   392   0.711E+02
DAV:   2     0.318853937766E+03   -0.20580E+04   -0.18934E+04   544   0.231E+02
DAV:   3    -0.112848547350E+03   -0.43170E+03   -0.40401E+03   488   0.108E+02
DAV:   4    -0.152425205236E+03   -0.39577E+02   -0.34084E+02   576   0.353E+01
DAV:   5    -0.155253541657E+03   -0.28283E+01   -0.22767E+01   576   0.713E+00    0.197E+01
RMM:   6    -0.159188900370E+03   -0.39354E+01   -0.59296E+01   400   0.191E+01    0.229E+01
RMM:   7    -0.149438598103E+03    0.97503E+01   -0.17532E+01   389   0.102E+01    0.149E+01
RMM:   8    -0.147616291192E+03    0.18223E+01   -0.82081E+00   398   0.638E+00    0.103E+01
RMM:   9    -0.146346458916E+03    0.12698E+01   -0.20171E+00   395   0.319E+00    0.895E+00
RMM:  10    -0.145583581883E+03    0.76288E+00   -0.46459E-01   404   0.153E+00    0.464E+00
RMM:  11    -0.145363654430E+03    0.21993E+00   -0.23631E-01   412   0.105E+00    0.240E+00
RMM:  12    -0.145415580588E+03   -0.51926E-01   -0.21195E-01   397   0.106E+00    0.342E+00
RMM:  13    -0.145348081299E+03    0.67499E-01   -0.10769E-01   398   0.754E-01    0.235E+00
RMM:  14    -0.145431355410E+03   -0.83274E-01   -0.10876E-01   396   0.763E-01    0.385E+00
RMM:  15    -0.145353710053E+03    0.77645E-01   -0.72938E-02   397   0.627E-01    0.250E+00
RMM:  16    -0.145287557802E+03    0.66152E-01   -0.42935E-02   385   0.515E-01    0.779E-01
RMM:  17    -0.145282547057E+03    0.50107E-02   -0.16220E-02   390   0.299E-01    0.795E-01
RMM:  18    -0.145280970998E+03    0.15761E-02   -0.70123E-03   408   0.183E-01    0.743E-01
RMM:  19    -0.145277734497E+03    0.32365E-02   -0.42756E-03   388   0.154E-01    0.426E-01
RMM:  20    -0.145277765027E+03   -0.30530E-04   -0.22668E-03   391   0.108E-01    0.329E-01
RMM:  21    -0.145279040731E+03   -0.12757E-02   -0.15436E-03   384   0.914E-02    0.206E-01
RMM:  22    -0.145281221359E+03   -0.21806E-02   -0.93809E-04   370   0.698E-02    0.114E-01
RMM:  23    -0.145290449459E+03   -0.92281E-02   -0.15851E-03   355   0.750E-02    0.196E-01
RMM:  24    -0.145293795331E+03   -0.33459E-02   -0.69317E-04   297   0.498E-02    0.120E-01
RMM:  25    -0.145296590582E+03   -0.27953E-02   -0.42604E-04   260   0.430E-02    0.874E-02
RMM:  26    -0.145301368836E+03   -0.47783E-02   -0.81939E-04   301   0.473E-02    0.776E-02
RMM:  27    -0.145303380858E+03   -0.20120E-02   -0.45038E-04   265   0.346E-02    0.561E-02
RMM:  28    -0.145305541258E+03   -0.21604E-02   -0.58534E-04   280   0.379E-02    0.584E-02
RMM:  29    -0.145306140555E+03   -0.59930E-03   -0.15658E-04   224   0.266E-02    0.418E-02
RMM:  30    -0.145306927948E+03   -0.78739E-03   -0.91468E-05   216   0.219E-02    0.218E-02
RMM:  31    -0.145307341684E+03   -0.41374E-03   -0.41634E-05   214   0.167E-02    0.234E-02
RMM:  32    -0.145307678465E+03   -0.33678E-03   -0.22011E-05   200   0.120E-02    0.112E-02
RMM:  33    -0.145307791252E+03   -0.11279E-03   -0.93358E-06   136   0.788E-03    0.713E-03
RMM:  34    -0.145308040304E+03   -0.24905E-03   -0.29217E-05   187   0.102E-02    0.674E-03
RMM:  35    -0.145308067881E+03   -0.27578E-04   -0.83072E-06   111   0.624E-03
    1 T=  2993. E= -.13292780E+03 F= -.14530807E+03 E0= -.14512803E+03  EK= 0.12380E+02 SP= 0.00E+00 SK= 0.00E+00
 bond charge predicted
       N       E                     dE             d eps       ncg     rms          rms(c)
DAV:   1    -0.145231282776E+03    0.76758E-01   -0.32336E+01   392   0.111E+01    0.832E-01
RMM:   2    -0.145370581347E+03   -0.13930E+00   -0.56949E-01   385   0.185E+00    0.319E+00
RMM:   3    -0.145291976443E+03    0.78605E-01   -0.77513E-02   398   0.678E-01    0.131E+00
RMM:   4    -0.145281441280E+03    0.10535E-01   -0.24701E-02   388   0.379E-01    0.878E-01
RMM:   5    -0.145276252003E+03    0.51893E-02   -0.65179E-03   389   0.182E-01    0.568E-01
RMM:   6    -0.145273195196E+03    0.30568E-02   -0.23905E-03   385   0.113E-01    0.290E-01
RMM:   7    -0.145274154384E+03   -0.95919E-03   -0.36149E-03   388   0.132E-01    0.447E-01
RMM:   8    -0.145274630102E+03   -0.47572E-03   -0.36140E-03   394   0.126E-01    0.532E-01
RMM:   9    -0.145272527468E+03    0.21026E-02   -0.23543E-03   386   0.108E-01    0.178E-01
RMM:  10    -0.145272351733E+03    0.17573E-03   -0.76165E-04   356   0.677E-02    0.121E-01
RMM:  11    -0.145272360010E+03   -0.82765E-05   -0.19001E-04   214   0.381E-02
    2 T=  2992. E= -.13289791E+03 F= -.14527236E+03 E0= -.14509399E+03  EK= 0.12374E+02 SP= 0.00E+00 SK= 0.00E+00
Information: wavefunction orthogonal band  189  0.8918
Information: wavefunction orthogonal band  192  0.8854
 bond charge predicted
 prediction of wavefunctions
       N       E                     dE             d eps       ncg     rms          rms(c)
DAV:   1    -0.145222325422E+03    0.50026E-01   -0.15972E+01   400   0.781E+00    0.586E-01
RMM:   2    -0.145309122294E+03   -0.86797E-01   -0.30950E-01   385   0.153E+00    0.254E+00
RMM:   3    -0.145255523721E+03    0.53599E-01   -0.48785E-02   402   0.534E-01    0.902E-01
RMM:   4    -0.145251065288E+03    0.44584E-02   -0.13256E-02   394   0.288E-01    0.666E-01
RMM:   5    -0.145247787165E+03    0.32781E-02   -0.34321E-03   392   0.133E-01    0.378E-01
RMM:   6    -0.145246537397E+03    0.12498E-02   -0.10625E-03   383   0.745E-02    0.252E-01
RMM:   7    -0.145246440970E+03    0.96427E-04   -0.49917E-04   289   0.519E-02
    3 T=  3299. E= -.13159950E+03 F= -.14524644E+03 E0= -.14506906E+03  EK= 0.13647E+02 SP= 0.00E+00 SK= 0.00E+00
 bond charge predicted
 prediction of wavefunctions
       N       E                     dE             d eps       ncg     rms          rms(c)
DAV:   1    -0.145181117534E+03    0.65420E-01   -0.14278E+01   392   0.739E+00    0.778E-01
RMM:   2    -0.145364713586E+03   -0.18360E+00   -0.33283E-01   385   0.143E+00    0.438E+00
RMM:   3    -0.145221094304E+03    0.14362E+00   -0.66795E-02   386   0.661E-01    0.139E+00
RMM:   4    -0.145203350404E+03    0.17744E-01   -0.23299E-02   386   0.377E-01    0.618E-01
RMM:   5    -0.145201438454E+03    0.19120E-02   -0.64541E-03   396   0.178E-01    0.514E-01
RMM:   6    -0.145199060182E+03    0.23783E-02   -0.19773E-03   389   0.987E-02    0.295E-01
RMM:   7    -0.145199167300E+03   -0.10712E-03   -0.10108E-03   386   0.734E-02    0.334E-01
RMM:   8    -0.145199076254E+03    0.91046E-04   -0.15241E-03   388   0.851E-02    0.304E-01
RMM:   9    -0.145198933325E+03    0.14293E-03   -0.21101E-03   384   0.987E-02    0.293E-01
RMM:  10    -0.145198207326E+03    0.72600E-03   -0.77411E-04   366   0.637E-02    0.912E-02
RMM:  11    -0.145198234510E+03   -0.27185E-04   -0.16990E-04   214   0.363E-02
    4 T=  3109. E= -.13233990E+03 F= -.14519823E+03 E0= -.14502277E+03  EK= 0.12858E+02 SP= 0.00E+00 SK= 0.00E+00
 bond charge predicted
 prediction of wavefunctions
       N       E                     dE             d eps       ncg     rms          rms(c)
DAV:   1    -0.145158448423E+03    0.39759E-01   -0.84412E+00   392   0.572E+00    0.459E-01
RMM:   2    -0.145196527944E+03   -0.38080E-01   -0.18716E-01   385   0.125E+00    0.154E+00
RMM:   3    -0.145177735832E+03    0.18792E-01   -0.28721E-02   440   0.384E-01    0.769E-01
RMM:   4    -0.145174067845E+03    0.36680E-02   -0.65213E-03   387   0.205E-01    0.453E-01
RMM:   5    -0.145172683411E+03    0.13844E-02   -0.20089E-03   388   0.103E-01    0.323E-01
RMM:   6    -0.145171782641E+03    0.90077E-03   -0.65069E-04   347   0.610E-02    0.174E-01
RMM:   7    -0.145171979097E+03   -0.19646E-03   -0.80651E-04   378   0.642E-02    0.251E-01
RMM:   8    -0.145172198062E+03   -0.21896E-03   -0.91669E-04   387   0.662E-02    0.299E-01
RMM:   9    -0.145171458477E+03    0.73958E-03   -0.13064E-03   385   0.786E-02    0.994E-02
RMM:  10    -0.145171405262E+03    0.53215E-04   -0.22317E-04   215   0.429E-02
    5 T=  2638. E= -.13426024E+03 F= -.14517141E+03 E0= -.14499921E+03  EK= 0.10911E+02 SP= 0.00E+00 SK= 0.00E+00
 bond charge predicted
 prediction of wavefunctions
       N       E                     dE             d eps       ncg     rms          rms(c)
DAV:   1    -0.145199820478E+03   -0.28362E-01   -0.13025E+01   384   0.710E+00    0.578E-01
RMM:   2    -0.145267350523E+03   -0.67530E-01   -0.25610E-01   385   0.134E+00    0.219E+00
RMM:   3    -0.145225271070E+03    0.42079E-01   -0.39995E-02   395   0.487E-01    0.832E-01
RMM:   4    -0.145221256707E+03    0.40144E-02   -0.10990E-02   390   0.255E-01    0.599E-01
RMM:   5    -0.145219281500E+03    0.19752E-02   -0.31640E-03   394   0.128E-01    0.417E-01
RMM:   6    -0.145217699468E+03    0.15820E-02   -0.12839E-03   385   0.850E-02    0.210E-01
RMM:   7    -0.145217752637E+03   -0.53169E-04   -0.97618E-04   385   0.704E-02
    6 T=  2275. E= -.13580733E+03 F= -.14521775E+03 E0= -.14504736E+03  EK= 0.94104E+01 SP= 0.00E+00 SK= 0.00E+00
 bond charge predicted
 prediction of wavefunctions
       N       E                     dE             d eps       ncg     rms          rms(c)
DAV:   1    -0.145258287172E+03   -0.40588E-01   -0.63862E+00   400   0.500E+00    0.817E-01
RMM:   2    -0.145585970953E+03   -0.32768E+00   -0.24682E-01   395   0.122E+00    0.578E+00
RMM:   3    -0.145286623221E+03    0.29935E+00   -0.76843E-02   387   0.712E-01    0.128E+00
RMM:   4    -0.145267583561E+03    0.19040E-01   -0.24758E-02   387   0.410E-01    0.619E-01
RMM:   5    -0.145265202670E+03    0.23809E-02   -0.60169E-03   411   0.165E-01    0.461E-01
RMM:   6    -0.145264037519E+03    0.11652E-02   -0.17708E-03   395   0.930E-02    0.318E-01
RMM:   7    -0.145263221261E+03    0.81626E-03   -0.90011E-04   385   0.695E-02    0.192E-01
RMM:   8    -0.145263270588E+03   -0.49328E-04   -0.77407E-04   374   0.662E-02
    7 T=  2107. E= -.13654770E+03 F= -.14526327E+03 E0= -.14509337E+03  EK= 0.87156E+01 SP= 0.00E+00 SK= 0.00E+00
 bond charge predicted
 prediction of wavefunctions
       N       E                     dE             d eps       ncg     rms          rms(c)
DAV:   1    -0.145280276142E+03   -0.17055E-01   -0.41917E+00   384   0.401E+00    0.806E-01
RMM:   2    -0.145718222529E+03   -0.43795E+00   -0.22955E-01   402   0.114E+00    0.699E+00
RMM:   3    -0.145300456092E+03    0.41777E+00   -0.87620E-02   387   0.760E-01    0.114E+00
RMM:   4    -0.145284569623E+03    0.15886E-01   -0.26002E-02   387   0.418E-01    0.516E-01
RMM:   5    -0.145282897075E+03    0.16725E-02   -0.63167E-03   415   0.164E-01    0.375E-01
RMM:   6    -0.145282545528E+03    0.35155E-03   -0.15768E-03   405   0.848E-02    0.346E-01
RMM:   7    -0.145281546237E+03    0.99929E-03   -0.67308E-04   337   0.605E-02    0.141E-01
RMM:   8    -0.145281501249E+03    0.44988E-04   -0.44051E-04   281   0.536E-02
    8 T=  2137. E= -.13644032E+03 F= -.14528150E+03 E0= -.14511191E+03  EK= 0.88412E+01 SP= 0.00E+00 SK= 0.00E+00
 bond charge predicted
 prediction of wavefunctions
       N       E                     dE             d eps       ncg     rms          rms(c)
DAV:   1    -0.145261951878E+03    0.19594E-01   -0.40885E+00   384   0.407E+00    0.640E-01
RMM:   2    -0.145477418769E+03   -0.21547E+00   -0.17432E-01   392   0.110E+00    0.462E+00
RMM:   3    -0.145279995049E+03    0.19742E+00   -0.49473E-02   385   0.580E-01    0.957E-01
RMM:   4    -0.145267995423E+03    0.12000E-01   -0.15840E-02   386   0.328E-01    0.407E-01
RMM:   5    -0.145266785013E+03    0.12104E-02   -0.36382E-03   396   0.133E-01    0.281E-01
RMM:   6    -0.145266385028E+03    0.39999E-03   -0.82932E-04   354   0.611E-02    0.232E-01
RMM:   7    -0.145265980607E+03    0.40442E-03   -0.27399E-04   235   0.423E-02    0.125E-01
RMM:   8    -0.145265994007E+03   -0.13400E-04   -0.36567E-04   254   0.513E-02
    9 T=  2034. E= -.13685218E+03 F= -.14526599E+03 E0= -.14509704E+03  EK= 0.84138E+01 SP= 0.00E+00 SK= 0.00E+00
 bond charge predicted
 prediction of wavefunctions
       N       E                     dE             d eps       ncg     rms          rms(c)
DAV:   1    -0.145218788545E+03    0.47192E-01   -0.66309E+00   384   0.509E+00    0.557E-01
RMM:   2    -0.145373799266E+03   -0.15501E+00   -0.17063E-01   388   0.103E+00    0.411E+00
RMM:   3    -0.145236594427E+03    0.13720E+00   -0.38718E-02   385   0.509E-01    0.802E-01
RMM:   4    -0.145228878736E+03    0.77157E-02   -0.13894E-02   387   0.301E-01    0.413E-01
RMM:   5    -0.145227663987E+03    0.12147E-02   -0.28002E-03   400   0.117E-01    0.315E-01
RMM:   6    -0.145226956904E+03    0.70708E-03   -0.75534E-04   352   0.606E-02    0.208E-01
RMM:   7    -0.145226719426E+03    0.23748E-03   -0.33303E-04   244   0.476E-02    0.173E-01
RMM:   8    -0.145226774070E+03   -0.54644E-04   -0.68423E-04   374   0.644E-02
   10 T=  2298. E= -.13572199E+03 F= -.14522677E+03 E0= -.14505740E+03  EK= 0.95048E+01 SP= 0.00E+00 SK= 0.00E+00
 bond charge predicted
 prediction of wavefunctions
       N       E                     dE             d eps       ncg     rms          rms(c)
DAV:   1    -0.145224348988E+03    0.23704E-02   -0.15289E+01   384   0.765E+00    0.672E-01
RMM:   2    -0.145361682330E+03   -0.13733E+00   -0.29953E-01   385   0.133E+00    0.361E+00
RMM:   3    -0.145257349970E+03    0.10433E+00   -0.50276E-02   387   0.548E-01    0.104E+00
RMM:   4    -0.145247758669E+03    0.95913E-02   -0.16082E-02   389   0.318E-01    0.647E-01
RMM:   5    -0.145245337498E+03    0.24212E-02   -0.46649E-03   389   0.157E-01    0.449E-01
RMM:   6    -0.145243797826E+03    0.15397E-02   -0.15433E-03   389   0.871E-02    0.320E-01
RMM:   7    -0.145243280543E+03    0.51728E-03   -0.82547E-04   371   0.666E-02    0.248E-01
RMM:   8    -0.145243410345E+03   -0.12980E-03   -0.15378E-03   384   0.893E-02    0.263E-01
RMM:   9    -0.145243406441E+03    0.39037E-05   -0.18829E-03   385   0.925E-02    0.283E-01
RMM:  10    -0.145242756531E+03    0.64991E-03   -0.66076E-04   351   0.586E-02    0.102E-01
RMM:  11    -0.145242739125E+03    0.17406E-04   -0.15750E-04   213   0.373E-02
   11 T=  2631. E= -.13436052E+03 F= -.14524274E+03 E0= -.14507471E+03  EK= 0.10882E+02 SP= 0.00E+00 SK= 0.00E+00
 bond charge predicted
 prediction of wavefunctions
       N       E                     dE             d eps       ncg     rms          rms(c)
DAV:   1    -0.145266560656E+03   -0.23804E-01   -0.12207E+01   384   0.685E+00    0.639E-01
RMM:   2    -0.145374968148E+03   -0.10841E+00   -0.27360E-01   385   0.136E+00    0.303E+00
RMM:   3    -0.145297587990E+03    0.77380E-01   -0.45837E-02   386   0.526E-01    0.111E+00
RMM:   4    -0.145285741580E+03    0.11846E-01   -0.14985E-02   385   0.314E-01    0.529E-01
RMM:   5    -0.145283649151E+03    0.20924E-02   -0.40502E-03   390   0.148E-01    0.351E-01
RMM:   6    -0.145282794526E+03    0.85462E-03   -0.10615E-03   392   0.700E-02    0.275E-01
RMM:   7    -0.145282384998E+03    0.40953E-03   -0.45154E-04   282   0.497E-02    0.219E-01
RMM:   8    -0.145282516796E+03   -0.13180E-03   -0.11013E-03   387   0.778E-02    0.256E-01
RMM:   9    -0.145282294121E+03    0.22267E-03   -0.19138E-03   385   0.911E-02    0.229E-01
RMM:  10    -0.145281837493E+03    0.45663E-03   -0.65624E-04   354   0.587E-02    0.862E-02
RMM:  11    -0.145281850889E+03   -0.13395E-04   -0.14895E-04   213   0.349E-02
   12 T=  2880. E= -.13336987E+03 F= -.14528185E+03 E0= -.14511605E+03  EK= 0.11912E+02 SP= 0.00E+00 SK= 0.00E+00
 bond charge predicted
 prediction of wavefunctions
       N       E                     dE             d eps       ncg     rms          rms(c)
DAV:   1    -0.145337255581E+03   -0.55418E-01   -0.10334E+01   384   0.629E+00    0.699E-01
RMM:   2    -0.145530280549E+03   -0.19302E+00   -0.26318E-01   385   0.140E+00    0.436E+00
RMM:   3    -0.145367751301E+03    0.16253E+00   -0.58243E-02   385   0.613E-01    0.105E+00
RMM:   4    -0.145353959765E+03    0.13792E-01   -0.19035E-02   385   0.358E-01    0.484E-01
RMM:   5    -0.145352501735E+03    0.14580E-02   -0.39291E-03   391   0.144E-01    0.393E-01
RMM:   6    -0.145351363442E+03    0.11383E-02   -0.11077E-03   388   0.730E-02    0.280E-01
RMM:   7    -0.145350896541E+03    0.46690E-03   -0.53287E-04   299   0.555E-02    0.196E-01
RMM:   8    -0.145350932664E+03   -0.36123E-04   -0.98878E-04   386   0.732E-02
   13 T=  2637. E= -.13444150E+03 F= -.14535093E+03 E0= -.14518688E+03  EK= 0.10909E+02 SP= 0.00E+00 SK= 0.00E+00
 bond charge predicted
 prediction of wavefunctions
       N       E                     dE             d eps       ncg     rms          rms(c)
DAV:   1    -0.145362763891E+03   -0.11867E-01   -0.56549E+00   384   0.454E+00    0.506E-01
RMM:   2    -0.145439166739E+03   -0.76403E-01   -0.14664E-01   386   0.103E+00    0.265E+00
RMM:   3    -0.145380451423E+03    0.58715E-01   -0.27572E-02   387   0.415E-01    0.917E-01
RMM:   4    -0.145371627691E+03    0.88237E-02   -0.10273E-02   385   0.262E-01    0.373E-01
RMM:   5    -0.145370829497E+03    0.79819E-03   -0.24609E-03   386   0.116E-01    0.297E-01
RMM:   6    -0.145370098330E+03    0.73117E-03   -0.60977E-04   312   0.561E-02    0.187E-01
RMM:   7    -0.145369952610E+03    0.14572E-03   -0.27867E-04   231   0.473E-02    0.169E-01
RMM:   8    -0.145369914421E+03    0.38189E-04   -0.43092E-04   280   0.533E-02
   14 T=  3196. E= -.13215093E+03 F= -.14536991E+03 E0= -.14520692E+03  EK= 0.13219E+02 SP= 0.00E+00 SK= 0.00E+00
 bond charge predicted
 prediction of wavefunctions
       N       E                     dE             d eps       ncg     rms          rms(c)
DAV:   1    -0.145275683787E+03    0.94269E-01   -0.23867E+01   384   0.951E+00    0.736E-01
RMM:   2    -0.145420442187E+03   -0.14476E+00   -0.43783E-01   385   0.159E+00    0.358E+00
RMM:   3    -0.145325156522E+03    0.95286E-01   -0.63590E-02   388   0.632E-01    0.124E+00
RMM:   4    -0.145311193562E+03    0.13963E-01   -0.21734E-02   385   0.352E-01    0.643E-01
RMM:   5    -0.145308657266E+03    0.25363E-02   -0.56686E-03   399   0.171E-01    0.505E-01
RMM:   6    -0.145306363347E+03    0.22939E-02   -0.18084E-03   390   0.955E-02    0.288E-01
RMM:   7    -0.145306316334E+03    0.47013E-04   -0.12000E-03   390   0.784E-02    0.327E-01
RMM:   8    -0.145306596414E+03   -0.28008E-03   -0.16955E-03   399   0.882E-02    0.387E-01
RMM:   9    -0.145305620054E+03    0.97636E-03   -0.32766E-03   384   0.120E-01    0.225E-01
RMM:  10    -0.145305256841E+03    0.36321E-03   -0.84545E-04   380   0.677E-02    0.132E-01
RMM:  11    -0.145305223694E+03    0.33146E-04   -0.19419E-04   214   0.376E-02
   15 T=  3116. E= -.13241702E+03 F= -.14530522E+03 E0= -.14514483E+03  EK= 0.12888E+02 SP= 0.00E+00 SK= 0.00E+00
 bond charge predicted
 prediction of wavefunctions
       N       E                     dE             d eps       ncg     rms          rms(c)
DAV:   1    -0.145281269554E+03    0.23987E-01   -0.11585E+01   384   0.665E+00    0.604E-01
RMM:   2    -0.145378683903E+03   -0.97414E-01   -0.25288E-01   385   0.135E+00    0.294E+00
RMM:   3    -0.145310174711E+03    0.68509E-01   -0.43880E-02   387   0.525E-01    0.996E-01
RMM:   4    -0.145302423856E+03    0.77509E-02   -0.13905E-02   387   0.296E-01    0.573E-01
RMM:   5    -0.145300083129E+03    0.23407E-02   -0.37240E-03   390   0.143E-01    0.393E-01
RMM:   6    -0.145298490935E+03    0.15922E-02   -0.11648E-03   385   0.795E-02    0.197E-01
RMM:   7    -0.145298755816E+03   -0.26488E-03   -0.88780E-04   372   0.658E-02    0.290E-01
RMM:   8    -0.145298807387E+03   -0.51571E-04   -0.12321E-03   397   0.759E-02    0.306E-01
RMM:   9    -0.145298035505E+03    0.77188E-03   -0.15141E-03   385   0.850E-02    0.130E-01
RMM:  10    -0.145297938666E+03    0.96839E-04   -0.35684E-04   262   0.497E-02
   16 T=  3275. E= -.13175141E+03 F= -.14529794E+03 E0= -.14513913E+03  EK= 0.13547E+02 SP= 0.00E+00 SK= 0.00E+00
 bond charge predicted
 prediction of wavefunctions
       N       E                     dE             d eps       ncg     rms          rms(c)
DAV:   1    -0.145290909336E+03    0.71262E-02   -0.14514E+01   384   0.750E+00    0.612E-01
RMM:   2    -0.145382841623E+03   -0.91932E-01   -0.29009E-01   385   0.148E+00    0.278E+00
RMM:   3    -0.145325208317E+03    0.57633E-01   -0.47938E-02   397   0.539E-01    0.101E+00
RMM:   4    -0.145316287258E+03    0.89211E-02   -0.15410E-02   385   0.321E-01    0.564E-01
RMM:   5    -0.145313712108E+03    0.25752E-02   -0.35842E-03   390   0.138E-01    0.420E-01
RMM:   6    -0.145312319382E+03    0.13927E-02   -0.10558E-03   387   0.738E-02    0.274E-01
RMM:   7    -0.145312050795E+03    0.26859E-03   -0.60651E-04   326   0.596E-02    0.246E-01
RMM:   8    -0.145312172328E+03   -0.12153E-03   -0.19326E-03   386   0.963E-02    0.289E-01
RMM:   9    -0.145311416273E+03    0.75605E-03   -0.22014E-03   385   0.986E-02    0.140E-01
RMM:  10    -0.145311315043E+03    0.10123E-03   -0.39653E-04   268   0.551E-02    0.107E-01
RMM:  11    -0.145311316505E+03   -0.14621E-05   -0.15486E-04   212   0.388E-02
   17 T=  2896. E= -.13333429E+03 F= -.14531132E+03 E0= -.14515366E+03  EK= 0.11977E+02 SP= 0.00E+00 SK= 0.00E+00
 bond charge predicted
 prediction of wavefunctions
       N       E                     dE             d eps       ncg     rms          rms(c)
DAV:   1    -0.145291371278E+03    0.19944E-01   -0.12747E+01   384   0.700E+00    0.647E-01
RMM:   2    -0.145367381291E+03   -0.76010E-01   -0.27606E-01   385   0.134E+00    0.229E+00
RMM:   3    -0.145324764298E+03    0.42617E-01   -0.44526E-02   387   0.523E-01    0.131E+00
RMM:   4    -0.145310096400E+03    0.14668E-01   -0.13649E-02   386   0.288E-01    0.463E-01
RMM:   5    -0.145308532817E+03    0.15636E-02   -0.36518E-03   390   0.142E-01    0.378E-01
RMM:   6    -0.145307264604E+03    0.12682E-02   -0.99166E-04   383   0.691E-02    0.217E-01
RMM:   7    -0.145307098009E+03    0.16659E-03   -0.55456E-04   307   0.554E-02    0.228E-01
RMM:   8    -0.145307283901E+03   -0.18589E-03   -0.76863E-04   387   0.631E-02    0.278E-01
RMM:   9    -0.145306802240E+03    0.48166E-03   -0.22092E-03   384   0.958E-02    0.183E-01
RMM:  10    -0.145306515199E+03    0.28704E-03   -0.55208E-04   320   0.552E-02    0.951E-02
RMM:  11    -0.145306482469E+03    0.32730E-04   -0.15065E-04   213   0.374E-02
   18 T=  2764. E= -.13387191E+03 F= -.14530648E+03 E0= -.14515110E+03  EK= 0.11435E+02 SP= 0.00E+00 SK= 0.00E+00
 bond charge predicted
 prediction of wavefunctions
       N       E                     dE             d eps       ncg     rms          rms(c)
DAV:   1    -0.145299448300E+03    0.70669E-02   -0.53105E+00   384   0.454E+00    0.349E-01
RMM:   2    -0.145321246435E+03   -0.21798E-01   -0.12592E-01   385   0.107E+00    0.111E+00
RMM:   3    -0.145313421676E+03    0.78248E-02   -0.19466E-02   482   0.300E-01    0.608E-01
RMM:   4    -0.145310948590E+03    0.24731E-02   -0.41449E-03   385   0.167E-01    0.370E-01
RMM:   5    -0.145309711309E+03    0.12373E-02   -0.11860E-03   384   0.851E-02    0.219E-01
RMM:   6    -0.145309270137E+03    0.44117E-03   -0.34978E-04   263   0.468E-02    0.135E-01
RMM:   7    -0.145309305093E+03   -0.34955E-04   -0.61084E-04   336   0.591E-02
   19 T=  2945. E= -.13312680E+03 F= -.14530931E+03 E0= -.14515703E+03  EK= 0.12183E+02 SP= 0.00E+00 SK= 0.00E+00
 bond charge predicted
 prediction of wavefunctions
       N       E                     dE             d eps       ncg     rms          rms(c)
DAV:   1    -0.145295881694E+03    0.13388E-01   -0.10070E+01   384   0.626E+00    0.582E-01
RMM:   2    -0.145380937112E+03   -0.85055E-01   -0.23453E-01   385   0.130E+00    0.250E+00
RMM:   3    -0.145319947461E+03    0.60990E-01   -0.39569E-02   387   0.496E-01    0.884E-01
RMM:   4    -0.145312838292E+03    0.71092E-02   -0.10891E-02   386   0.264E-01    0.475E-01
RMM:   5    -0.145311117600E+03    0.17207E-02   -0.28804E-03   394   0.124E-01    0.323E-01
RMM:   6    -0.145310167480E+03    0.95012E-03   -0.81418E-04   368   0.642E-02    0.198E-01
RMM:   7    -0.145310059355E+03    0.10813E-03   -0.37770E-04   260   0.477E-02    0.218E-01
RMM:   8    -0.145310033588E+03    0.25766E-04   -0.73993E-04   379   0.645E-02
   20 T=  2655. E= -.13432956E+03 F= -.14531003E+03 E0= -.14516072E+03  EK= 0.10980E+02 SP= 0.00E+00 SK= 0.00E+00
 bond charge predicted
 prediction of wavefunctions
       N       E                     dE             d eps       ncg     rms          rms(c)
DAV:   1    -0.145297233091E+03    0.12826E-01   -0.54254E+00   384   0.471E+00    0.674E-01
RMM:   2    -0.145467508665E+03   -0.17028E+00   -0.20265E-01   385   0.122E+00    0.402E+00
RMM:   3    -0.145320702313E+03    0.14681E+00   -0.49174E-02   385   0.585E-01    0.111E+00
RMM:   4    -0.145306742835E+03    0.13959E-01   -0.15018E-02   386   0.326E-01    0.463E-01
RMM:   5    -0.145304947472E+03    0.17954E-02   -0.36681E-03   389   0.144E-01    0.314E-01
RMM:   6    -0.145304307912E+03    0.63956E-03   -0.89080E-04   373   0.681E-02    0.242E-01
RMM:   7    -0.145303846599E+03    0.46131E-03   -0.39426E-04   271   0.502E-02    0.151E-01
RMM:   8    -0.145303793797E+03    0.52802E-04   -0.67703E-04   374   0.644E-02
   21 T=  2482. E= -.13503845E+03 F= -.14530379E+03 E0= -.14515754E+03  EK= 0.10265E+02 SP= 0.00E+00 SK= 0.00E+00
 bond charge predicted
 prediction of wavefunctions
       N       E                     dE             d eps       ncg     rms          rms(c)
DAV:   1    -0.145275880152E+03    0.27966E-01   -0.13125E+01   384   0.701E+00    0.655E-01
RMM:   2    -0.145387968617E+03   -0.11209E+00   -0.27747E-01   385   0.131E+00    0.299E+00
RMM:   3    -0.145307285662E+03    0.80683E-01   -0.44012E-02   385   0.507E-01    0.112E+00
RMM:   4    -0.145295311690E+03    0.11974E-01   -0.15970E-02   385   0.322E-01    0.534E-01
RMM:   5    -0.145293407997E+03    0.19037E-02   -0.39651E-03   391   0.148E-01    0.396E-01
RMM:   6    -0.145292189053E+03    0.12189E-02   -0.11830E-03   388   0.774E-02    0.273E-01
RMM:   7    -0.145291783420E+03    0.40563E-03   -0.53896E-04   299   0.551E-02    0.217E-01
RMM:   8    -0.145291846794E+03   -0.63374E-04   -0.11350E-03   387   0.768E-02    0.237E-01
RMM:   9    -0.145291947382E+03   -0.10059E-03   -0.17639E-03   384   0.899E-02    0.276E-01
RMM:  10    -0.145291428422E+03    0.51896E-03   -0.52033E-04   308   0.547E-02    0.129E-01
RMM:  11    -0.145291289115E+03    0.13931E-03   -0.22265E-04   213   0.457E-02    0.631E-02
RMM:  12    -0.145291284252E+03    0.48634E-05   -0.10667E-04   206   0.329E-02
   22 T=  2311. E= -.13573391E+03 F= -.14529128E+03 E0= -.14514712E+03  EK= 0.95574E+01 SP= 0.00E+00 SK= 0.00E+00
 bond charge predicted
 prediction of wavefunctions
       N       E                     dE             d eps       ncg     rms          rms(c)
DAV:   1    -0.145257089510E+03    0.34200E-01   -0.50363E+00   384   0.444E+00    0.363E-01
RMM:   2    -0.145289027376E+03   -0.31938E-01   -0.10848E-01   385   0.921E-01    0.161E+00
RMM:   3    -0.145269896271E+03    0.19131E-01   -0.17429E-02   396   0.322E-01    0.604E-01
RMM:   4    -0.145266843907E+03    0.30524E-02   -0.55022E-03   386   0.196E-01    0.359E-01
RMM:   5    -0.145265828306E+03    0.10156E-02   -0.12820E-03   388   0.859E-02    0.249E-01
RMM:   6    -0.145265258898E+03    0.56941E-03   -0.35283E-04   260   0.475E-02    0.149E-01
RMM:   7    -0.145265229861E+03    0.29038E-04   -0.22448E-04   216   0.432E-02
   23 T=  2392. E= -.13537132E+03 F= -.14526523E+03 E0= -.14512358E+03  EK= 0.98939E+01 SP= 0.00E+00 SK= 0.00E+00
 bond charge predicted
 prediction of wavefunctions
       N       E                     dE             d eps       ncg     rms          rms(c)
DAV:   1    -0.145233009159E+03    0.32250E-01   -0.78203E+00   384   0.546E+00    0.646E-01
RMM:   2    -0.145330778063E+03   -0.97769E-01   -0.20209E-01   385   0.116E+00    0.289E+00
RMM:   3    -0.145255378629E+03    0.75399E-01   -0.41323E-02   385   0.514E-01    0.106E+00
RMM:   4    -0.145245130352E+03    0.10248E-01   -0.11744E-02   386   0.275E-01    0.530E-01
RMM:   5    -0.145243664533E+03    0.14658E-02   -0.37921E-03   389   0.148E-01    0.401E-01
RMM:   6    -0.145242127989E+03    0.15365E-02   -0.12900E-03   385   0.840E-02    0.214E-01
RMM:   7    -0.145241949163E+03    0.17883E-03   -0.61531E-04   340   0.597E-02    0.213E-01
RMM:   8    -0.145242121060E+03   -0.17190E-03   -0.69869E-04   357   0.618E-02    0.253E-01
RMM:   9    -0.145241830818E+03    0.29024E-03   -0.11271E-03   385   0.755E-02    0.187E-01
RMM:  10    -0.145241544764E+03    0.28605E-03   -0.36601E-04   263   0.481E-02    0.104E-01
RMM:  11    -0.145241479274E+03    0.65490E-04   -0.13496E-04   209   0.375E-02
   24 T=  2930. E= -.13312337E+03 F= -.14524148E+03 E0= -.14510101E+03  EK= 0.12118E+02 SP= 0.00E+00 SK= 0.00E+00
 bond charge predicted
 prediction of wavefunctions
       N       E                     dE             d eps       ncg     rms          rms(c)
DAV:   1    -0.145165558349E+03    0.75986E-01   -0.10003E+01   384   0.619E+00    0.521E-01
RMM:   2    -0.145214104829E+03   -0.48546E-01   -0.21321E-01   385   0.121E+00    0.184E+00
RMM:   3    -0.145188243215E+03    0.25862E-01   -0.32669E-02   392   0.450E-01    0.856E-01
RMM:   4    -0.145182726061E+03    0.55172E-02   -0.92189E-03   385   0.236E-01    0.519E-01
RMM:   5    -0.145180984050E+03    0.17420E-02   -0.27588E-03   387   0.124E-01    0.373E-01
RMM:   6    -0.145179649848E+03    0.13342E-02   -0.91187E-04   374   0.699E-02    0.203E-01
RMM:   7    -0.145179560629E+03    0.89219E-04   -0.39104E-04   269   0.483E-02
   25 T=  2700. E= -.13401135E+03 F= -.14517956E+03 E0= -.14504217E+03  EK= 0.11168E+02 SP= 0.00E+00 SK= 0.00E+00
 bond charge predicted
 prediction of wavefunctions
       N       E                     dE             d eps       ncg     rms          rms(c)
DAV:   1    -0.145081442009E+03    0.98208E-01   -0.11806E+01   384   0.679E+00    0.714E-01
RMM:   2    -0.145236694647E+03   -0.15525E+00   -0.27669E-01   387   0.127E+00    0.371E+00
RMM:   3    -0.145117043787E+03    0.11965E+00   -0.52975E-02   385   0.614E-01    0.132E+00
RMM:   4    -0.145099379151E+03    0.17665E-01   -0.19303E-02   387   0.356E-01    0.566E-01
RMM:   5    -0.145097475828E+03    0.19033E-02   -0.52154E-03   390   0.168E-01    0.476E-01
RMM:   6    -0.145095954849E+03    0.15210E-02   -0.15952E-03   397   0.867E-02    0.343E-01
RMM:   7    -0.145095137558E+03    0.81729E-03   -0.97171E-04   384   0.729E-02    0.230E-01
RMM:   8    -0.145095354187E+03   -0.21663E-03   -0.14591E-03   386   0.870E-02    0.280E-01
RMM:   9    -0.145095859875E+03   -0.50569E-03   -0.15344E-03   392   0.862E-02    0.381E-01
RMM:  10    -0.145094687656E+03    0.11722E-02   -0.80819E-04   384   0.658E-02    0.132E-01
RMM:  11    -0.145094516863E+03    0.17079E-03   -0.23099E-04   219   0.434E-02    0.685E-02
RMM:  12    -0.145094501067E+03    0.15797E-04   -0.11335E-04   207   0.353E-02
   26 T=  2510. E= -.13471250E+03 F= -.14509450E+03 E0= -.14495969E+03  EK= 0.10382E+02 SP= 0.00E+00 SK= 0.00E+00
 bond charge predicted
 prediction of wavefunctions
       N       E                     dE             d eps       ncg     rms          rms(c)
DAV:   1    -0.145022131423E+03    0.72385E-01   -0.60829E+00   384   0.493E+00    0.446E-01
RMM:   2    -0.145072471339E+03   -0.50340E-01   -0.14234E-01   385   0.106E+00    0.204E+00
RMM:   3    -0.145038432335E+03    0.34039E-01   -0.22902E-02   389   0.369E-01    0.716E-01
RMM:   4    -0.145033044459E+03    0.53879E-02   -0.79735E-03   385   0.235E-01    0.355E-01
RMM:   5    -0.145032337472E+03    0.70699E-03   -0.17460E-03   388   0.983E-02    0.333E-01
RMM:   6    -0.145031434666E+03    0.90281E-03   -0.50391E-04   297   0.543E-02    0.182E-01
RMM:   7    -0.145031346935E+03    0.87732E-04   -0.44721E-04   282   0.572E-02
   27 T=  2655. E= -.13404922E+03 F= -.14503135E+03 E0= -.14490021E+03  EK= 0.10982E+02 SP= 0.00E+00 SK= 0.00E+00
 bond charge predicted
 prediction of wavefunctions
       N       E                     dE             d eps       ncg     rms          rms(c)
DAV:   1    -0.145019119638E+03    0.12315E-01   -0.14644E+01   384   0.750E+00    0.647E-01
RMM:   2    -0.145119463096E+03   -0.10034E+00   -0.29017E-01   385   0.134E+00    0.271E+00
RMM:   3    -0.145049823282E+03    0.69640E-01   -0.45684E-02   386   0.529E-01    0.101E+00
RMM:   4    -0.145041238246E+03    0.85850E-02   -0.12935E-02   386   0.287E-01    0.566E-01
RMM:   5    -0.145039438692E+03    0.17996E-02   -0.40145E-03   396   0.148E-01    0.415E-01
RMM:   6    -0.145037814012E+03    0.16247E-02   -0.13179E-03   384   0.844E-02    0.246E-01
RMM:   7    -0.145037766046E+03    0.47967E-04   -0.68829E-04   341   0.624E-02
   28 T=  3303. E= -.13137704E+03 F= -.14503777E+03 E0= -.14490923E+03  EK= 0.13661E+02 SP= 0.00E+00 SK= 0.00E+00
 bond charge predicted
 prediction of wavefunctions
       N       E                     dE             d eps       ncg     rms          rms(c)
DAV:   1    -0.145043305289E+03   -0.54913E-02   -0.16075E+01   384   0.781E+00    0.779E-01
RMM:   2    -0.145182751627E+03   -0.13945E+00   -0.35186E-01   385   0.149E+00    0.344E+00
RMM:   3    -0.145086048215E+03    0.96703E-01   -0.60814E-02   385   0.643E-01    0.137E+00
RMM:   4    -0.145069088771E+03    0.16959E-01   -0.21018E-02   385   0.369E-01    0.728E-01
RMM:   5    -0.145065101471E+03    0.39873E-02   -0.65335E-03   391   0.195E-01    0.468E-01
RMM:   6    -0.145063139088E+03    0.19624E-02   -0.20460E-03   386   0.107E-01    0.319E-01
RMM:   7    -0.145062819951E+03    0.31914E-03   -0.10250E-03   391   0.719E-02    0.307E-01
RMM:   8    -0.145062870143E+03   -0.50193E-04   -0.17278E-03   387   0.958E-02    0.310E-01
RMM:   9    -0.145062628451E+03    0.24169E-03   -0.23280E-03   384   0.107E-01    0.276E-01
RMM:  10    -0.145061996171E+03    0.63228E-03   -0.77173E-04   373   0.641E-02    0.133E-01
RMM:  11    -0.145061867487E+03    0.12868E-03   -0.16745E-04   213   0.375E-02    0.847E-02
RMM:  12    -0.145061838135E+03    0.29352E-04   -0.11858E-04   207   0.337E-02
   29 T=  2996. E= -.13267039E+03 F= -.14506184E+03 E0= -.14493562E+03  EK= 0.12391E+02 SP= 0.00E+00 SK= 0.00E+00
 bond charge predicted
 prediction of wavefunctions
       N       E                     dE             d eps       ncg     rms          rms(c)
DAV:   1    -0.145052698654E+03    0.91688E-02   -0.95521E+00   384   0.612E+00    0.513E-01
RMM:   2    -0.145111249274E+03   -0.58551E-01   -0.20336E-01   385   0.127E+00    0.214E+00
RMM:   3    -0.145076755334E+03    0.34494E-01   -0.31558E-02   406   0.419E-01    0.837E-01
RMM:   4    -0.145069824083E+03    0.69313E-02   -0.10573E-02   385   0.275E-01    0.461E-01
RMM:   5    -0.145067915929E+03    0.19082E-02   -0.24181E-03   387   0.117E-01    0.310E-01
RMM:   6    -0.145067065365E+03    0.85056E-03   -0.78525E-04   374   0.670E-02    0.207E-01
RMM:   7    -0.145067039114E+03    0.26251E-04   -0.45626E-04   281   0.538E-02
   30 T=  2640. E= -.13414604E+03 F= -.14506704E+03 E0= -.14494323E+03  EK= 0.10921E+02 SP= 0.00E+00 SK= 0.00E+00
 bond charge predicted
 prediction of wavefunctions
       N       E                     dE             d eps       ncg     rms          rms(c)
DAV:   1    -0.145082439365E+03   -0.15374E-01   -0.11911E+01   384   0.683E+00    0.718E-01
RMM:   2    -0.145243863586E+03   -0.16142E+00   -0.29494E-01   385   0.147E+00    0.399E+00
RMM:   3    -0.145117166795E+03    0.12670E+00   -0.56781E-02   385   0.600E-01    0.113E+00
RMM:   4    -0.145103299574E+03    0.13867E-01   -0.20306E-02   385   0.377E-01    0.600E-01
RMM:   5    -0.145100704842E+03    0.25947E-02   -0.48078E-03   393   0.163E-01    0.438E-01
RMM:   6    -0.145099070456E+03    0.16344E-02   -0.13623E-03   390   0.857E-02    0.286E-01
RMM:   7    -0.145098680470E+03    0.38999E-03   -0.74509E-04   367   0.674E-02    0.246E-01
RMM:   8    -0.145098692244E+03   -0.11774E-04   -0.11203E-03   387   0.768E-02    0.260E-01
RMM:   9    -0.145098915967E+03   -0.22372E-03   -0.15545E-03   391   0.852E-02    0.315E-01
RMM:  10    -0.145098102045E+03    0.81392E-03   -0.74149E-04   372   0.630E-02    0.128E-01
RMM:  11    -0.145097988433E+03    0.11361E-03   -0.22467E-04   218   0.425E-02    0.856E-02
RMM:  12    -0.145097959131E+03    0.29301E-04   -0.13043E-04   207   0.383E-02
   31 T=  2977. E= -.13278593E+03 F= -.14509796E+03 E0= -.14497738E+03  EK= 0.12312E+02 SP= 0.00E+00 SK= 0.00E+00
 bond charge predicted
 prediction of wavefunctions
       N       E                     dE             d eps       ncg     rms          rms(c)
DAV:   1    -0.145093974913E+03    0.40135E-02   -0.17493E+01   384   0.816E+00    0.676E-01
RMM:   2    -0.145177469389E+03   -0.83494E-01   -0.33977E-01   385   0.151E+00    0.242E+00
RMM:   3    -0.145133462960E+03    0.44006E-01   -0.48595E-02   399   0.538E-01    0.109E+00
RMM:   4    -0.145122882542E+03    0.10580E-01   -0.16190E-02   386   0.323E-01    0.607E-01
RMM:   5    -0.145120832278E+03    0.20503E-02   -0.41957E-03   389   0.154E-01    0.509E-01
RMM:   6    -0.145118704213E+03    0.21281E-02   -0.14511E-03   386   0.900E-02    0.310E-01
RMM:   7    -0.145118192841E+03    0.51137E-03   -0.99841E-04   386   0.757E-02    0.258E-01
RMM:   8    -0.145118367114E+03   -0.17427E-03   -0.25772E-03   385   0.112E-01    0.290E-01
RMM:   9    -0.145117743229E+03    0.62389E-03   -0.18970E-03   385   0.918E-02    0.213E-01
RMM:  10    -0.145117418874E+03    0.32435E-03   -0.37816E-04   263   0.553E-02    0.118E-01
RMM:  11    -0.145117340494E+03    0.78380E-04   -0.20422E-04   213   0.447E-02
   32 T=  2887. E= -.13317413E+03 F= -.14511734E+03 E0= -.14499481E+03  EK= 0.11943E+02 SP= 0.00E+00 SK= 0.00E+00
 bond charge predicted
 prediction of wavefunctions
       N       E                     dE             d eps       ncg     rms          rms(c)
DAV:   1    -0.145128764252E+03   -0.11345E-01   -0.85667E+00   384   0.571E+00    0.431E-01
RMM:   2    -0.145162549144E+03   -0.33785E-01   -0.17370E-01   385   0.116E+00    0.144E+00
RMM:   3    -0.145147956805E+03    0.14592E-01   -0.25962E-02   432   0.385E-01    0.692E-01
RMM:   4    -0.145145395462E+03    0.25613E-02   -0.61781E-03   387   0.196E-01    0.491E-01
RMM:   5    -0.145143156174E+03    0.22393E-02   -0.18855E-03   385   0.105E-01    0.255E-01
RMM:   6    -0.145142575381E+03    0.58079E-03   -0.60645E-04   333   0.601E-02    0.195E-01
RMM:   7    -0.145142480347E+03    0.95035E-04   -0.31041E-04   235   0.475E-02
   33 T=  3315. E= -.13143197E+03 F= -.14514248E+03 E0= -.14501816E+03  EK= 0.13711E+02 SP= 0.00E+00 SK= 0.00E+00
 bond charge predicted
 prediction of wavefunctions
       N       E                     dE             d eps       ncg     rms          rms(c)
DAV:   1    -0.145161273105E+03   -0.18698E-01   -0.16908E+01   384   0.805E+00    0.827E-01
RMM:   2    -0.145363063777E+03   -0.20179E+00   -0.38031E-01   385   0.160E+00    0.422E+00
RMM:   3    -0.145203365354E+03    0.15970E+00   -0.73801E-02   385   0.689E-01    0.122E+00
RMM:   4    -0.145188682972E+03    0.14682E-01   -0.23408E-02   385   0.392E-01    0.752E-01
RMM:   5    -0.145185022339E+03    0.36606E-02   -0.65319E-03   389   0.193E-01    0.509E-01
RMM:   6    -0.145183499799E+03    0.15225E-02   -0.20905E-03   387   0.109E-01    0.420E-01
RMM:   7    -0.145182091036E+03    0.14088E-02   -0.10895E-03   386   0.780E-02    0.241E-01
RMM:   8    -0.145182343524E+03   -0.25249E-03   -0.18853E-03   386   0.993E-02    0.304E-01
RMM:   9    -0.145182281556E+03    0.61968E-04   -0.21792E-03   386   0.994E-02    0.330E-01
RMM:  10    -0.145181413766E+03    0.86779E-03   -0.78586E-04   380   0.650E-02    0.143E-01
RMM:  11    -0.145181248220E+03    0.16555E-03   -0.20265E-04   216   0.402E-02    0.726E-02
RMM:  12    -0.145181231342E+03    0.16878E-04   -0.12532E-04   209   0.355E-02
   34 T=  3345. E= -.13134334E+03 F= -.14518123E+03 E0= -.14505518E+03  EK= 0.13838E+02 SP= 0.00E+00 SK= 0.00E+00
 bond charge predicted
 prediction of wavefunctions
       N       E                     dE             d eps       ncg     rms          rms(c)
DAV:   1    -0.145139549236E+03    0.41699E-01   -0.80527E+00   384   0.567E+00    0.539E-01
RMM:   2    -0.145238346948E+03   -0.98798E-01   -0.20158E-01   385   0.133E+00    0.300E+00
RMM:   3    -0.145161382132E+03    0.76965E-01   -0.36710E-02   388   0.472E-01    0.704E-01
RMM:   4    -0.145155825307E+03    0.55568E-02   -0.11347E-02   385   0.286E-01    0.505E-01
RMM:   5    -0.145153479659E+03    0.23456E-02   -0.24440E-03   389   0.119E-01    0.265E-01
RMM:   6    -0.145152797195E+03    0.68246E-03   -0.72027E-04   347   0.650E-02    0.181E-01
RMM:   7    -0.145152798058E+03   -0.86288E-06   -0.36503E-04   250   0.486E-02
   35 T=  3638. E= -.13010534E+03 F= -.14515280E+03 E0= -.14502675E+03  EK= 0.15047E+02 SP= 0.00E+00 SK= 0.00E+00
 bond charge predicted
 prediction of wavefunctions
       N       E                     dE             d eps       ncg     rms          rms(c)
DAV:   1    -0.145184143737E+03   -0.31347E-01   -0.17372E+01   384   0.815E+00    0.943E-01
RMM:   2    -0.145399349466E+03   -0.21521E+00   -0.47245E-01   385   0.189E+00    0.403E+00
RMM:   3    -0.145230961792E+03    0.16839E+00   -0.88455E-02   385   0.742E-01    0.140E+00
RMM:   4    -0.145210458155E+03    0.20504E-01   -0.24805E-02   385   0.402E-01    0.691E-01
RMM:   5    -0.145206261483E+03    0.41967E-02   -0.71423E-03   391   0.196E-01    0.403E-01
RMM:   6    -0.145204860719E+03    0.14008E-02   -0.20540E-03   397   0.943E-02    0.301E-01
RMM:   7    -0.145204675615E+03    0.18510E-03   -0.91197E-04   395   0.653E-02    0.301E-01
RMM:   8    -0.145204711730E+03   -0.36115E-04   -0.12818E-03   388   0.816E-02    0.310E-01
RMM:   9    -0.145204524287E+03    0.18744E-03   -0.25379E-03   385   0.108E-01    0.286E-01
RMM:  10    -0.145203770286E+03    0.75400E-03   -0.83884E-04   381   0.646E-02    0.108E-01
RMM:  11    -0.145203716976E+03    0.53310E-04   -0.20641E-04   214   0.410E-02
   36 T=  3199. E= -.13197173E+03 F= -.14520372E+03 E0= -.14507929E+03  EK= 0.13232E+02 SP= 0.00E+00 SK= 0.00E+00
 bond charge predicted
 prediction of wavefunctions
       N       E                     dE             d eps       ncg     rms          rms(c)
DAV:   1    -0.145233689336E+03   -0.29919E-01   -0.18508E+01   384   0.846E+00    0.723E-01
RMM:   2    -0.145348618426E+03   -0.11493E+00   -0.36813E-01   385   0.160E+00    0.297E+00
RMM:   3    -0.145275168809E+03    0.73450E-01   -0.56385E-02   397   0.556E-01    0.118E+00
RMM:   4    -0.145262760997E+03    0.12408E-01   -0.17441E-02   385   0.344E-01    0.641E-01
RMM:   5    -0.145259478653E+03    0.32823E-02   -0.53561E-03   388   0.170E-01    0.417E-01
RMM:   6    -0.145257789555E+03    0.16891E-02   -0.17229E-03   386   0.950E-02    0.277E-01
RMM:   7    -0.145257816143E+03   -0.26587E-04   -0.11048E-03   391   0.775E-02    0.323E-01
RMM:   8    -0.145257862590E+03   -0.46447E-04   -0.17294E-03   392   0.938E-02    0.332E-01
RMM:   9    -0.145257216879E+03    0.64571E-03   -0.24824E-03   385   0.107E-01    0.237E-01
RMM:  10    -0.145256774111E+03    0.44277E-03   -0.51613E-04   311   0.577E-02    0.127E-01
RMM:  11    -0.145256657231E+03    0.11688E-03   -0.20252E-04   214   0.429E-02    0.756E-02
RMM:  12    -0.145256645996E+03    0.11235E-04   -0.11363E-04   207   0.339E-02
   37 T=  3066. E= -.13257310E+03 F= -.14525665E+03 E0= -.14513295E+03  EK= 0.12684E+02 SP= 0.00E+00 SK= 0.00E+00
 bond charge predicted
 prediction of wavefunctions
       N       E                     dE             d eps       ncg     rms          rms(c)
DAV:   1    -0.145225535265E+03    0.31122E-01   -0.11014E+01   384   0.638E+00    0.660E-01
RMM:   2    -0.145346758820E+03   -0.12122E+00   -0.23785E-01   385   0.118E+00    0.350E+00
RMM:   3    -0.145253576633E+03    0.93182E-01   -0.47925E-02   385   0.582E-01    0.102E+00
RMM:   4    -0.145243212764E+03    0.10364E-01   -0.16298E-02   385   0.318E-01    0.557E-01
RMM:   5    -0.145240842791E+03    0.23700E-02   -0.37190E-03   394   0.139E-01    0.385E-01
RMM:   6    -0.145239311048E+03    0.15317E-02   -0.11236E-03   380   0.775E-02    0.209E-01
RMM:   7    -0.145239555403E+03   -0.24436E-03   -0.67446E-04   338   0.594E-02    0.299E-01
RMM:   8    -0.145239257733E+03    0.29767E-03   -0.11397E-03   387   0.763E-02    0.230E-01
RMM:   9    -0.145238784631E+03    0.47310E-03   -0.15227E-03   384   0.842E-02    0.119E-01
RMM:  10    -0.145238703694E+03    0.80937E-04   -0.24823E-04   227   0.416E-02
   38 T=  2813. E= -.13360180E+03 F= -.14523870E+03 E0= -.14511656E+03  EK= 0.11637E+02 SP= 0.00E+00 SK= 0.00E+00
 bond charge predicted
 prediction of wavefunctions
       N       E                     dE             d eps       ncg     rms          rms(c)
DAV:   1    -0.145209548357E+03    0.29236E-01   -0.18390E+01   384   0.829E+00    0.635E-01
RMM:   2    -0.145281119879E+03   -0.71572E-01   -0.33782E-01   385   0.144E+00    0.208E+00
RMM:   3    -0.145245925191E+03    0.35195E-01   -0.44900E-02   401   0.483E-01    0.104E+00
RMM:   4    -0.145237008576E+03    0.89166E-02   -0.11590E-02   387   0.266E-01    0.542E-01
RMM:   5    -0.145234757871E+03    0.22507E-02   -0.33060E-03   387   0.133E-01    0.392E-01
RMM:   6    -0.145233291226E+03    0.14666E-02   -0.10745E-03   386   0.728E-02    0.233E-01
RMM:   7    -0.145233190569E+03    0.10066E-03   -0.11178E-03   387   0.754E-02    0.262E-01
RMM:   8    -0.145233816855E+03   -0.62629E-03   -0.18332E-03   394   0.878E-02    0.390E-01
RMM:   9    -0.145232728300E+03    0.10886E-02   -0.19659E-03   384   0.944E-02    0.204E-01
RMM:  10    -0.145232339305E+03    0.38900E-03   -0.53135E-04   316   0.568E-02    0.892E-02
RMM:  11    -0.145232290493E+03    0.48811E-04   -0.16064E-04   213   0.382E-02
   39 T=  2742. E= -.13389112E+03 F= -.14523229E+03 E0= -.14510985E+03  EK= 0.11341E+02 SP= 0.00E+00 SK= 0.00E+00
 bond charge predicted
 prediction of wavefunctions
       N       E                     dE             d eps       ncg     rms          rms(c)
DAV:   1    -0.145186004714E+03    0.46335E-01   -0.15041E+01   384   0.760E+00    0.768E-01
RMM:   2    -0.145365832710E+03   -0.17983E+00   -0.33573E-01   385   0.145E+00    0.397E+00
RMM:   3    -0.145222554288E+03    0.14328E+00   -0.60378E-02   385   0.595E-01    0.115E+00
RMM:   4    -0.145208380629E+03    0.14174E-01   -0.19339E-02   385   0.363E-01    0.546E-01
RMM:   5    -0.145206176201E+03    0.22044E-02   -0.51024E-03   390   0.165E-01    0.425E-01
RMM:   6    -0.145204457575E+03    0.17186E-02   -0.15233E-03   390   0.868E-02    0.257E-01
RMM:   7    -0.145204393916E+03    0.63659E-04   -0.93819E-04   385   0.702E-02
   40 T=  2521. E= -.13477492E+03 F= -.14520439E+03 E0= -.14508411E+03  EK= 0.10429E+02 SP= 0.00E+00 SK= 0.00E+00
 bond charge predicted
 prediction of wavefunctions
       N       E                     dE             d eps       ncg     rms          rms(c)
DAV:   1    -0.145142286632E+03    0.62171E-01   -0.73757E+00   384   0.542E+00    0.787E-01
RMM:   2    -0.145396424596E+03   -0.25414E+00   -0.25592E-01   392   0.125E+00    0.477E+00
RMM:   3    -0.145173689669E+03    0.22273E+00   -0.68057E-02   385   0.677E-01    0.132E+00
RMM:   4    -0.145152225675E+03    0.21464E-01   -0.20990E-02   389   0.383E-01    0.444E-01
RMM:   5    -0.145150328513E+03    0.18972E-02   -0.51436E-03   399   0.163E-01    0.331E-01
RMM:   6    -0.145149450169E+03    0.87834E-03   -0.13392E-03   402   0.783E-02    0.232E-01
RMM:   7    -0.145149169172E+03    0.28100E-03   -0.68023E-04   351   0.605E-02    0.201E-01
RMM:   8    -0.145149403499E+03   -0.23433E-03   -0.83025E-04   388   0.653E-02    0.262E-01
RMM:   9    -0.145149195239E+03    0.20826E-03   -0.11201E-03   384   0.784E-02    0.207E-01
RMM:  10    -0.145148751598E+03    0.44364E-03   -0.48681E-04   304   0.539E-02    0.801E-02
RMM:  11    -0.145148723279E+03    0.28319E-04   -0.12943E-04   210   0.363E-02
   41 T=  2552. E= -.13459097E+03 F= -.14514872E+03 E0= -.14503008E+03  EK= 0.10558E+02 SP= 0.00E+00 SK= 0.00E+00
 bond charge predicted
 prediction of wavefunctions
       N       E                     dE             d eps       ncg     rms          rms(c)
DAV:   1    -0.145107772075E+03    0.40980E-01   -0.16059E+01   384   0.782E+00    0.594E-01
RMM:   2    -0.145175476820E+03   -0.67705E-01   -0.28847E-01   385   0.130E+00    0.211E+00
RMM:   3    -0.145139129971E+03    0.36347E-01   -0.36143E-02   389   0.472E-01    0.930E-01
RMM:   4    -0.145131139868E+03    0.79901E-02   -0.12496E-02   386   0.281E-01    0.505E-01
RMM:   5    -0.145129156223E+03    0.19836E-02   -0.31501E-03   392   0.132E-01    0.369E-01
RMM:   6    -0.145127769392E+03    0.13868E-02   -0.10620E-03   386   0.752E-02    0.216E-01
RMM:   7    -0.145127868260E+03   -0.98868E-04   -0.11425E-03   391   0.747E-02    0.291E-01
RMM:   8    -0.145128292307E+03   -0.42405E-03   -0.16785E-03   393   0.909E-02    0.374E-01
RMM:   9    -0.145127149039E+03    0.11433E-02   -0.19748E-03   384   0.928E-02    0.169E-01
RMM:  10    -0.145126857963E+03    0.29108E-03   -0.39042E-04   269   0.541E-02    0.903E-02
RMM:  11    -0.145126813147E+03    0.44816E-04   -0.16241E-04   213   0.405E-02
   42 T=  2508. E= -.13475101E+03 F= -.14512681E+03 E0= -.14500967E+03  EK= 0.10376E+02 SP= 0.00E+00 SK= 0.00E+00
 bond charge predicted
 prediction of wavefunctions
       N       E                     dE             d eps       ncg     rms          rms(c)
DAV:   1    -0.145156612160E+03   -0.29754E-01   -0.12639E+01   384   0.699E+00    0.616E-01
RMM:   2    -0.145267770139E+03   -0.11116E+00   -0.25955E-01   385   0.133E+00    0.304E+00
RMM:   3    -0.145186648975E+03    0.81121E-01   -0.44180E-02   387   0.530E-01    0.902E-01
RMM:   4    -0.145176480856E+03    0.10168E-01   -0.14092E-02   385   0.306E-01    0.448E-01
RMM:   5    -0.145174820701E+03    0.16602E-02   -0.30067E-03   395   0.125E-01    0.350E-01
RMM:   6    -0.145173681859E+03    0.11388E-02   -0.93237E-04   382   0.670E-02    0.234E-01
RMM:   7    -0.145173650856E+03    0.31003E-04   -0.57016E-04   313   0.549E-02
   43 T=  2281. E= -.13573710E+03 F= -.14517365E+03 E0= -.14505642E+03  EK= 0.94365E+01 SP= 0.00E+00 SK= 0.00E+00
 bond charge predicted
 prediction of wavefunctions
       N       E                     dE             d eps       ncg     rms          rms(c)
DAV:   1    -0.145190544749E+03   -0.16863E-01   -0.11560E+01   384   0.657E+00    0.746E-01
RMM:   2    -0.145327659865E+03   -0.13712E+00   -0.29137E-01   385   0.130E+00    0.318E+00
RMM:   3    -0.145224135544E+03    0.10352E+00   -0.53703E-02   385   0.566E-01    0.132E+00
RMM:   4    -0.145205881570E+03    0.18254E-01   -0.16983E-02   385   0.333E-01    0.478E-01
RMM:   5    -0.145203912597E+03    0.19690E-02   -0.45127E-03   393   0.156E-01    0.368E-01
RMM:   6    -0.145202699555E+03    0.12130E-02   -0.13174E-03   389   0.772E-02    0.227E-01
RMM:   7    -0.145202493786E+03    0.20577E-03   -0.73908E-04   345   0.613E-02    0.238E-01
RMM:   8    -0.145202571766E+03   -0.77979E-04   -0.97518E-04   388   0.698E-02
   44 T=  2535. E= -.13471691E+03 F= -.14520257E+03 E0= -.14508363E+03  EK= 0.10486E+02 SP= 0.00E+00 SK= 0.00E+00
 bond charge predicted
 prediction of wavefunctions
       N       E                     dE             d eps       ncg     rms          rms(c)
DAV:   1    -0.145261063552E+03   -0.58570E-01   -0.74894E+00   392   0.537E+00    0.660E-01
RMM:   2    -0.145356570970E+03   -0.95507E-01   -0.23027E-01   385   0.135E+00    0.269E+00
RMM:   3    -0.145283167291E+03    0.73404E-01   -0.45747E-02   385   0.544E-01    0.901E-01
RMM:   4    -0.145274449762E+03    0.87175E-02   -0.12094E-02   385   0.287E-01    0.558E-01
RMM:   5    -0.145271806448E+03    0.26433E-02   -0.34527E-03   387   0.142E-01    0.295E-01
RMM:   6    -0.145271088440E+03    0.71801E-03   -0.95848E-04   375   0.725E-02    0.238E-01
RMM:   7    -0.145270781922E+03    0.30652E-03   -0.34746E-04   260   0.446E-02    0.181E-01
RMM:   8    -0.145270878571E+03   -0.96649E-04   -0.65962E-04   342   0.645E-02
   45 T=  2632. E= -.13438415E+03 F= -.14527088E+03 E0= -.14515284E+03  EK= 0.10887E+02 SP= 0.00E+00 SK= 0.00E+00
 bond charge predicted
 prediction of wavefunctions
       N       E                     dE             d eps       ncg     rms          rms(c)
DAV:   1    -0.145342486397E+03   -0.71704E-01   -0.56623E+00   384   0.480E+00    0.523E-01
RMM:   2    -0.145413611484E+03   -0.71125E-01   -0.16737E-01   385   0.117E+00    0.249E+00
RMM:   3    -0.145359772422E+03    0.53839E-01   -0.31191E-02   386   0.449E-01    0.737E-01
RMM:   4    -0.145353930204E+03    0.58422E-02   -0.93804E-03   385   0.255E-01    0.450E-01
RMM:   5    -0.145352293468E+03    0.16367E-02   -0.24725E-03   389   0.121E-01    0.274E-01
RMM:   6    -0.145351627352E+03    0.66612E-03   -0.68001E-04   336   0.625E-02    0.184E-01
RMM:   7    -0.145351482867E+03    0.14448E-03   -0.30158E-04   235   0.472E-02    0.175E-01
RMM:   8    -0.145351563230E+03   -0.80363E-04   -0.66883E-04   366   0.621E-02
   46 T=  2915. E= -.13329556E+03 F= -.14535156E+03 E0= -.14523613E+03  EK= 0.12056E+02 SP= 0.00E+00 SK= 0.00E+00
 bond charge predicted
 prediction of wavefunctions
       N       E                     dE             d eps       ncg     rms          rms(c)
DAV:   1    -0.145448603351E+03   -0.97120E-01   -0.20330E+01   384   0.883E+00    0.743E-01
RMM:   2    -0.145599854716E+03   -0.15125E+00   -0.39751E-01   385   0.155E+00    0.334E+00
RMM:   3    -0.145492959181E+03    0.10690E+00   -0.60063E-02   389   0.597E-01    0.121E+00
RMM:   4    -0.145478299155E+03    0.14660E-01   -0.19049E-02   386   0.360E-01    0.597E-01
RMM:   5    -0.145475333442E+03    0.29657E-02   -0.51358E-03   389   0.170E-01    0.430E-01
RMM:   6    -0.145473993312E+03    0.13401E-02   -0.14652E-03   395   0.856E-02    0.335E-01
RMM:   7    -0.145473295124E+03    0.69819E-03   -0.11035E-03   387   0.747E-02    0.257E-01
RMM:   8    -0.145473520535E+03   -0.22541E-03   -0.28607E-03   385   0.121E-01    0.317E-01
RMM:   9    -0.145473397748E+03    0.12279E-03   -0.24000E-03   387   0.104E-01    0.324E-01
RMM:  10    -0.145472514657E+03    0.88309E-03   -0.80599E-04   379   0.663E-02    0.119E-01
RMM:  11    -0.145472386593E+03    0.12806E-03   -0.18497E-04   214   0.384E-02    0.809E-02
RMM:  12    -0.145472350609E+03    0.35984E-04   -0.12661E-04   207   0.348E-02
   47 T=  2764. E= -.13404121E+03 F= -.14547235E+03 E0= -.14535901E+03  EK= 0.11431E+02 SP= 0.00E+00 SK= 0.00E+00
 bond charge predicted
 prediction of wavefunctions
       N       E                     dE             d eps       ncg     rms          rms(c)
DAV:   1    -0.145536881576E+03   -0.64495E-01   -0.79198E+00   384   0.556E+00    0.507E-01
RMM:   2    -0.145589724991E+03   -0.52843E-01   -0.18766E-01   385   0.121E+00    0.193E+00
RMM:   3    -0.145556627599E+03    0.33097E-01   -0.31088E-02   389   0.442E-01    0.755E-01
RMM:   4    -0.145551493760E+03    0.51338E-02   -0.85994E-03   386   0.238E-01    0.444E-01
RMM:   5    -0.145549808969E+03    0.16848E-02   -0.20472E-03   386   0.108E-01    0.273E-01
RMM:   6    -0.145548978934E+03    0.83003E-03   -0.54845E-04   312   0.557E-02    0.167E-01
RMM:   7    -0.145548964592E+03    0.14343E-04   -0.52976E-04   320   0.553E-02
   48 T=  2817. E= -.13389737E+03 F= -.14554896E+03 E0= -.14543771E+03  EK= 0.11652E+02 SP= 0.00E+00 SK= 0.00E+00
 bond charge predicted
 prediction of wavefunctions
       N       E                     dE             d eps       ncg     rms          rms(c)
DAV:   1    -0.145628632263E+03   -0.79653E-01   -0.10371E+01   384   0.639E+00    0.720E-01
RMM:   2    -0.145833209282E+03   -0.20458E+00   -0.28917E-01   385   0.151E+00    0.415E+00
RMM:   3    -0.145659752122E+03    0.17346E+00   -0.60308E-02   386   0.630E-01    0.979E-01
RMM:   4    -0.145645834605E+03    0.13918E-01   -0.18116E-02   385   0.358E-01    0.466E-01
RMM:   5    -0.145644301016E+03    0.15336E-02   -0.38104E-03   398   0.142E-01    0.381E-01
RMM:   6    -0.145643261909E+03    0.10391E-02   -0.10419E-03   388   0.736E-02    0.263E-01
RMM:   7    -0.145642831930E+03    0.42998E-03   -0.63673E-04   328   0.592E-02    0.200E-01
RMM:   8    -0.145643097032E+03   -0.26510E-03   -0.12827E-03   390   0.824E-02    0.267E-01
RMM:   9    -0.145642893556E+03    0.20348E-03   -0.14480E-03   387   0.814E-02    0.252E-01
RMM:  10    -0.145642398998E+03    0.49456E-03   -0.58873E-04   343   0.576E-02    0.110E-01
RMM:  11    -0.145642326577E+03    0.72420E-04   -0.20736E-04   213   0.424E-02
   49 T=  2630. E= -.13476553E+03 F= -.14564233E+03 E0= -.14553265E+03  EK= 0.10877E+02 SP= 0.00E+00 SK= 0.00E+00
 bond charge predicted
 prediction of wavefunctions
       N       E                     dE             d eps       ncg     rms          rms(c)
DAV:   1    -0.145699838041E+03   -0.57439E-01   -0.95911E+00   384   0.599E+00    0.719E-01
RMM:   2    -0.145847673305E+03   -0.14784E+00   -0.23072E-01   387   0.120E+00    0.396E+00
RMM:   3    -0.145726223835E+03    0.12145E+00   -0.55887E-02   385   0.621E-01    0.107E+00
RMM:   4    -0.145715167037E+03    0.11057E-01   -0.18558E-02   386   0.344E-01    0.568E-01
RMM:   5    -0.145712923011E+03    0.22440E-02   -0.40923E-03   398   0.143E-01    0.421E-01
RMM:   6    -0.145711251696E+03    0.16713E-02   -0.12737E-03   382   0.841E-02    0.255E-01
RMM:   7    -0.145711048656E+03    0.20304E-03   -0.54454E-04   310   0.570E-02    0.249E-01
RMM:   8    -0.145710973495E+03    0.75161E-04   -0.12785E-03   383   0.809E-02    0.238E-01
RMM:   9    -0.145710602976E+03    0.37052E-03   -0.11190E-03   379   0.736E-02    0.180E-01
RMM:  10    -0.145710292559E+03    0.31042E-03   -0.40697E-04   265   0.509E-02    0.661E-02
RMM:  11    -0.145710272592E+03    0.19967E-04   -0.15149E-04   211   0.396E-02
   50 T=  2421. E= -.13569765E+03 F= -.14571027E+03 E0= -.14560017E+03  EK= 0.10013E+02 SP= 0.00E+00 SK= 0.00E+00
 bond charge predicted
 prediction of wavefunctions
       N       E                     dE             d eps       ncg     rms          rms(c)
DAV:   1    -0.145743099128E+03   -0.32807E-01   -0.13732E+01   384   0.714E+00    0.546E-01
RMM:   2    -0.145801175415E+03   -0.58076E-01   -0.24606E-01   385   0.122E+00    0.202E+00
RMM:   3    -0.145767966994E+03    0.33208E-01   -0.32480E-02   399   0.446E-01    0.626E-01
RMM:   4    -0.145765660416E+03    0.23066E-02   -0.10032E-02   386   0.254E-01    0.581E-01
RMM:   5    -0.145762434641E+03    0.32258E-02   -0.22348E-03   385   0.110E-01    0.307E-01
RMM:   6    -0.145761752943E+03    0.68170E-03   -0.87492E-04   366   0.718E-02    0.228E-01
RMM:   7    -0.145761851460E+03   -0.98517E-04   -0.86253E-04   378   0.676E-02
   51 T=  2640. E= -.13484377E+03 F= -.14576185E+03 E0= -.14564961E+03  EK= 0.10918E+02 SP= 0.00E+00 SK= 0.00E+00
 bond charge predicted
 prediction of wavefunctions
       N       E                     dE             d eps       ncg     rms          rms(c)
DAV:   1    -0.145726066003E+03    0.35687E-01   -0.64775E+00   384   0.507E+00    0.556E-01
RMM:   2    -0.145817726022E+03   -0.91660E-01   -0.18041E-01   385   0.118E+00    0.292E+00
RMM:   3    -0.145746710499E+03    0.71016E-01   -0.33384E-02   386   0.461E-01    0.869E-01
RMM:   4    -0.145738803805E+03    0.79067E-02   -0.11346E-02   385   0.281E-01    0.526E-01
RMM:   5    -0.145736354828E+03    0.24490E-02   -0.31531E-03   387   0.135E-01    0.281E-01
RMM:   6    -0.145735822113E+03    0.53272E-03   -0.95669E-04   386   0.743E-02    0.236E-01
RMM:   7    -0.145735494515E+03    0.32760E-03   -0.41682E-04   273   0.507E-02    0.187E-01
RMM:   8    -0.145735485397E+03    0.91180E-05   -0.77205E-04   378   0.689E-02
   52 T=  2577. E= -.13507801E+03 F= -.14573549E+03 E0= -.14562254E+03  EK= 0.10657E+02 SP= 0.00E+00 SK= 0.00E+00
 bond charge predicted
 prediction of wavefunctions
       N       E                     dE             d eps       ncg     rms          rms(c)
DAV:   1    -0.145736534875E+03   -0.10404E-02   -0.86885E+00   384   0.586E+00    0.667E-01
RMM:   2    -0.145900276522E+03   -0.16374E+00   -0.23475E-01   385   0.131E+00    0.389E+00
RMM:   3    -0.145762866139E+03    0.13741E+00   -0.49558E-02   385   0.567E-01    0.105E+00
RMM:   4    -0.145750068439E+03    0.12798E-01   -0.16309E-02   385   0.341E-01    0.476E-01
RMM:   5    -0.145747991382E+03    0.20771E-02   -0.37309E-03   389   0.145E-01    0.322E-01
RMM:   6    -0.145747240651E+03    0.75073E-03   -0.10021E-03   397   0.706E-02    0.228E-01
RMM:   7    -0.145746904249E+03    0.33640E-03   -0.49939E-04   298   0.508E-02    0.184E-01
RMM:   8    -0.145746881263E+03    0.22986E-04   -0.77602E-04   381   0.683E-02
   53 T=  2857. E= -.13392787E+03 F= -.14574688E+03 E0= -.14563283E+03  EK= 0.11819E+02 SP= 0.00E+00 SK= 0.00E+00
 bond charge predicted
 prediction of wavefunctions
       N       E                     dE             d eps       ncg     rms          rms(c)
DAV:   1    -0.145674604420E+03    0.72300E-01   -0.16013E+01   384   0.780E+00    0.810E-01
RMM:   2    -0.145929520977E+03   -0.25492E+00   -0.37321E-01   386   0.149E+00    0.478E+00
RMM:   3    -0.145717146024E+03    0.21237E+00   -0.72516E-02   385   0.666E-01    0.135E+00
RMM:   4    -0.145696691999E+03    0.20454E-01   -0.24868E-02   385   0.401E-01    0.548E-01
RMM:   5    -0.145693983998E+03    0.27080E-02   -0.61511E-03   396   0.176E-01    0.390E-01
RMM:   6    -0.145692726215E+03    0.12578E-02   -0.15289E-03   393   0.831E-02    0.294E-01
RMM:   7    -0.145692284893E+03    0.44132E-03   -0.68639E-04   337   0.600E-02    0.227E-01
RMM:   8    -0.145692246887E+03    0.38006E-04   -0.15538E-03   386   0.884E-02    0.238E-01
RMM:   9    -0.145692028665E+03    0.21822E-03   -0.24940E-03   384   0.101E-01    0.225E-01
RMM:  10    -0.145691609811E+03    0.41885E-03   -0.53571E-04   318   0.583E-02    0.102E-01
RMM:  11    -0.145691544691E+03    0.65120E-04   -0.17731E-04   213   0.393E-02
   54 T=  2139. E= -.13684217E+03 F= -.14569154E+03 E0= -.14557698E+03  EK= 0.88494E+01 SP= 0.00E+00 SK= 0.00E+00
 bond charge predicted
 prediction of wavefunctions
       N       E                     dE             d eps       ncg     rms          rms(c)
DAV:   1    -0.145586458590E+03    0.10515E+00   -0.96462E+00   384   0.615E+00    0.637E-01
RMM:   2    -0.145706449037E+03   -0.11999E+00   -0.23009E-01   385   0.125E+00    0.334E+00
RMM:   3    -0.145613885973E+03    0.92563E-01   -0.42076E-02   386   0.509E-01    0.102E+00
RMM:   4    -0.145601022187E+03    0.12864E-01   -0.13929E-02   385   0.311E-01    0.475E-01
RMM:   5    -0.145599263853E+03    0.17583E-02   -0.34374E-03   394   0.136E-01    0.328E-01
RMM:   6    -0.145598368399E+03    0.89545E-03   -0.95509E-04   389   0.705E-02    0.239E-01
RMM:   7    -0.145598057143E+03    0.31126E-03   -0.49466E-04   293   0.516E-02    0.199E-01
RMM:   8    -0.145598107848E+03   -0.50705E-04   -0.11715E-03   385   0.789E-02    0.214E-01
RMM:   9    -0.145597858183E+03    0.24967E-03   -0.13694E-03   386   0.778E-02    0.176E-01
RMM:  10    -0.145597563799E+03    0.29438E-03   -0.35265E-04   252   0.485E-02    0.738E-02
RMM:  11    -0.145597550544E+03    0.13256E-04   -0.13990E-04   211   0.388E-02
   55 T=  2173. E= -.13660997E+03 F= -.14559755E+03 E0= -.14548376E+03  EK= 0.89876E+01 SP= 0.00E+00 SK= 0.00E+00
 bond charge predicted
 prediction of wavefunctions
       N       E                     dE             d eps       ncg     rms          rms(c)
DAV:   1    -0.145465670147E+03    0.13189E+00   -0.25141E+00   392   0.333E+00    0.353E-01
RMM:   2    -0.145494472334E+03   -0.28802E-01   -0.87678E-02   385   0.860E-01    0.146E+00
RMM:   3    -0.145475039511E+03    0.19433E-01   -0.13284E-02   385   0.290E-01    0.591E-01
RMM:   4    -0.145471377562E+03    0.36619E-02   -0.45567E-03   385   0.175E-01    0.251E-01
RMM:   5    -0.145470843242E+03    0.53432E-03   -0.11141E-03   378   0.798E-02    0.189E-01
RMM:   6    -0.145470512036E+03    0.33121E-03   -0.24386E-04   224   0.418E-02    0.111E-01
RMM:   7    -0.145470472682E+03    0.39354E-04   -0.15039E-04   213   0.383E-02
   56 T=  2617. E= -.13464595E+03 F= -.14547047E+03 E0= -.14535844E+03  EK= 0.10825E+02 SP= 0.00E+00 SK= 0.00E+00
 bond charge predicted
 prediction of wavefunctions
       N       E                     dE             d eps       ncg     rms          rms(c)
DAV:   1    -0.145309060916E+03    0.16145E+00   -0.14097E+01   384   0.733E+00    0.667E-01
RMM:   2    -0.145410621974E+03   -0.10156E+00   -0.31372E-01   385   0.155E+00    0.282E+00
RMM:   3    -0.145345643443E+03    0.64979E-01   -0.48967E-02   392   0.521E-01    0.114E+00
RMM:   4    -0.145332786567E+03    0.12857E-01   -0.15758E-02   385   0.338E-01    0.527E-01
RMM:   5    -0.145331224193E+03    0.15624E-02   -0.39452E-03   387   0.145E-01    0.457E-01
RMM:   6    -0.145329342621E+03    0.18816E-02   -0.12142E-03   386   0.822E-02    0.252E-01
RMM:   7    -0.145329215848E+03    0.12677E-03   -0.73533E-04   360   0.630E-02    0.266E-01
RMM:   8    -0.145328998202E+03    0.21765E-03   -0.18868E-03   384   0.978E-02    0.233E-01
RMM:   9    -0.145328538258E+03    0.45994E-03   -0.19763E-03   384   0.963E-02    0.170E-01
RMM:  10    -0.145328301156E+03    0.23710E-03   -0.34743E-04   249   0.474E-02    0.931E-02
RMM:  11    -0.145328261528E+03    0.39628E-04   -0.16295E-04   213   0.403E-02
   57 T=  2516. E= -.13492202E+03 F= -.14532826E+03 E0= -.14521916E+03  EK= 0.10406E+02 SP= 0.00E+00 SK= 0.00E+00
 bond charge predicted
 prediction of wavefunctions
       N       E                     dE             d eps       ncg     rms          rms(c)
DAV:   1    -0.145237187842E+03    0.91113E-01   -0.11193E+01   384   0.661E+00    0.545E-01
RMM:   2    -0.145326773459E+03   -0.89586E-01   -0.23561E-01   385   0.135E+00    0.278E+00
RMM:   3    -0.145262064112E+03    0.64709E-01   -0.36386E-02   395   0.445E-01    0.745E-01
RMM:   4    -0.145255854589E+03    0.62095E-02   -0.11025E-02   385   0.280E-01    0.428E-01
RMM:   5    -0.145254913381E+03    0.94121E-03   -0.25532E-03   393   0.116E-01    0.392E-01
RMM:   6    -0.145253630024E+03    0.12834E-02   -0.85288E-04   372   0.688E-02    0.217E-01
RMM:   7    -0.145253406853E+03    0.22317E-03   -0.63162E-04   334   0.616E-02    0.214E-01
RMM:   8    -0.145253365509E+03    0.41344E-04   -0.15438E-03   386   0.863E-02    0.221E-01
RMM:   9    -0.145252979222E+03    0.38629E-03   -0.13431E-03   384   0.768E-02    0.157E-01
RMM:  10    -0.145252796814E+03    0.18241E-03   -0.22349E-04   217   0.449E-02    0.805E-02
RMM:  11    -0.145252766821E+03    0.29993E-04   -0.13288E-04   206   0.364E-02
   58 T=  2674. E= -.13419254E+03 F= -.14525277E+03 E0= -.14514608E+03  EK= 0.11060E+02 SP= 0.00E+00 SK= 0.00E+00
 bond charge predicted
 prediction of wavefunctions
       N       E                     dE             d eps       ncg     rms          rms(c)
DAV:   1    -0.145156503738E+03    0.96293E-01   -0.73944E+00   384   0.534E+00    0.417E-01
RMM:   2    -0.145186613716E+03   -0.30110E-01   -0.15130E-01   385   0.110E+00    0.136E+00
RMM:   3    -0.145173393614E+03    0.13220E-01   -0.22826E-02   455   0.342E-01    0.645E-01
RMM:   4    -0.145170342357E+03    0.30513E-02   -0.58176E-03   385   0.199E-01    0.394E-01
RMM:   5    -0.145168912517E+03    0.14298E-02   -0.14597E-03   384   0.920E-02    0.262E-01
RMM:   6    -0.145168402603E+03    0.50991E-03   -0.50430E-04   303   0.559E-02    0.193E-01
RMM:   7    -0.145168362417E+03    0.40185E-04   -0.64166E-04   348   0.621E-02
   59 T=  3196. E= -.13194725E+03 F= -.14516836E+03 E0= -.14506481E+03  EK= 0.13221E+02 SP= 0.00E+00 SK= 0.00E+00
 bond charge predicted
 prediction of wavefunctions
       N       E                     dE             d eps       ncg     rms          rms(c)
DAV:   1    -0.145087174052E+03    0.81229E-01   -0.11970E+01   384   0.679E+00    0.597E-01
RMM:   2    -0.145175890680E+03   -0.88717E-01   -0.25179E-01   385   0.133E+00    0.265E+00
RMM:   3    -0.145116103608E+03    0.59787E-01   -0.42068E-02   387   0.528E-01    0.934E-01
RMM:   4    -0.145108361863E+03    0.77417E-02   -0.13740E-02   385   0.299E-01    0.561E-01
RMM:   5    -0.145105912171E+03    0.24497E-02   -0.35233E-03   389   0.140E-01    0.370E-01
RMM:   6    -0.145104771293E+03    0.11409E-02   -0.10716E-03   387   0.768E-02    0.281E-01
RMM:   7    -0.145104372071E+03    0.39922E-03   -0.63619E-04   337   0.599E-02    0.235E-01
RMM:   8    -0.145104479133E+03   -0.10706E-03   -0.16826E-03   385   0.948E-02    0.271E-01
RMM:   9    -0.145104048281E+03    0.43085E-03   -0.20020E-03   385   0.963E-02    0.203E-01
RMM:  10    -0.145103658287E+03    0.38999E-03   -0.52790E-04   314   0.564E-02    0.896E-02
RMM:  11    -0.145103623592E+03    0.34695E-04   -0.14564E-04   213   0.375E-02
   60 T=  3019. E= -.13261407E+03 F= -.14510362E+03 E0= -.14500059E+03  EK= 0.12490E+02 SP= 0.00E+00 SK= 0.00E+00
 bond charge predicted
 prediction of wavefunctions
       N       E                     dE             d eps       ncg     rms          rms(c)
DAV:   1    -0.145009102814E+03    0.94555E-01   -0.69659E+00   384   0.530E+00    0.441E-01
RMM:   2    -0.145049513546E+03   -0.40411E-01   -0.16480E-01   385   0.119E+00    0.169E+00
RMM:   3    -0.145026470169E+03    0.23043E-01   -0.25464E-02   403   0.381E-01    0.609E-01
RMM:   4    -0.145023421628E+03    0.30485E-02   -0.65303E-03   385   0.218E-01    0.464E-01
RMM:   5    -0.145021484723E+03    0.19369E-02   -0.17371E-03   387   0.103E-01    0.241E-01
RMM:   6    -0.145021076930E+03    0.40779E-03   -0.47426E-04   288   0.526E-02    0.209E-01
RMM:   7    -0.145020888635E+03    0.18830E-03   -0.33597E-04   241   0.512E-02    0.174E-01
RMM:   8    -0.145020947663E+03   -0.59028E-04   -0.12059E-03   384   0.784E-02    0.201E-01
RMM:   9    -0.145020695978E+03    0.25168E-03   -0.10521E-03   384   0.710E-02    0.141E-01
RMM:  10    -0.145020533461E+03    0.16252E-03   -0.25808E-04   219   0.444E-02    0.633E-02
RMM:  11    -0.145020535431E+03   -0.19702E-05   -0.11825E-04   207   0.371E-02
   61 T=  3122. E= -.13210712E+03 F= -.14502054E+03 E0= -.14491992E+03  EK= 0.12913E+02 SP= 0.00E+00 SK= 0.00E+00
 bond charge predicted
 prediction of wavefunctions
       N       E                     dE             d eps       ncg     rms          rms(c)
DAV:   1    -0.144866766109E+03    0.15377E+00   -0.18121E+01   384   0.828E+00    0.806E-01
RMM:   2    -0.144999597123E+03   -0.13283E+00   -0.39440E-01   385   0.165E+00    0.309E+00
RMM:   3    -0.144906166718E+03    0.93430E-01   -0.67111E-02   387   0.631E-01    0.106E+00
RMM:   4    -0.144894658164E+03    0.11509E-01   -0.18613E-02   385   0.356E-01    0.634E-01
RMM:   5    -0.144891682542E+03    0.29756E-02   -0.49802E-03   390   0.166E-01    0.444E-01
RMM:   6    -0.144889530837E+03    0.21517E-02   -0.16912E-03   384   0.937E-02    0.240E-01
RMM:   7    -0.144889640563E+03   -0.10973E-03   -0.13861E-03   390   0.822E-02    0.295E-01
RMM:   8    -0.144889953141E+03   -0.31258E-03   -0.26639E-03   385   0.110E-01    0.361E-01
RMM:   9    -0.144888956059E+03    0.99708E-03   -0.11195E-03   383   0.720E-02    0.182E-01
RMM:  10    -0.144888642422E+03    0.31364E-03   -0.45180E-04   290   0.547E-02    0.887E-02
RMM:  11    -0.144888633307E+03    0.91148E-05   -0.15842E-04   213   0.402E-02
   62 T=  2717. E= -.13365178E+03 F= -.14488863E+03 E0= -.14479243E+03  EK= 0.11237E+02 SP= 0.00E+00 SK= 0.00E+00
 bond charge predicted
 prediction of wavefunctions
       N       E                     dE             d eps       ncg     rms          rms(c)
DAV:   1    -0.144665284603E+03    0.22336E+00   -0.14422E+01   384   0.745E+00    0.727E-01
RMM:   2    -0.144865595625E+03   -0.20031E+00   -0.32133E-01   385   0.146E+00    0.421E+00
RMM:   3    -0.144700014705E+03    0.16558E+00   -0.59154E-02   386   0.602E-01    0.995E-01
RMM:   4    -0.144687165507E+03    0.12849E-01   -0.17145E-02   385   0.342E-01    0.501E-01
RMM:   5    -0.144685122566E+03    0.20429E-02   -0.39970E-03   397   0.145E-01    0.380E-01
RMM:   6    -0.144683885864E+03    0.12367E-02   -0.12462E-03   393   0.792E-02    0.281E-01
RMM:   7    -0.144683549764E+03    0.33610E-03   -0.77544E-04   363   0.637E-02    0.254E-01
RMM:   8    -0.144683444830E+03    0.10493E-03   -0.17314E-03   387   0.914E-02    0.245E-01
RMM:   9    -0.144683029877E+03    0.41495E-03   -0.19864E-03   385   0.910E-02    0.204E-01
RMM:  10    -0.144682691911E+03    0.33797E-03   -0.44386E-04   291   0.544E-02    0.968E-02
RMM:  11    -0.144682644444E+03    0.47467E-04   -0.17059E-04   214   0.398E-02
   63 T=  2779. E= -.13318960E+03 F= -.14468264E+03 E0= -.14458966E+03  EK= 0.11493E+02 SP= 0.00E+00 SK= 0.00E+00
 bond charge predicted
 prediction of wavefunctions
       N       E                     dE             d eps       ncg     rms          rms(c)
DAV:   1    -0.144512247322E+03    0.17044E+00   -0.10794E+01   384   0.648E+00    0.499E-01
RMM:   2    -0.144555293830E+03   -0.43047E-01   -0.21175E-01   385   0.123E+00    0.161E+00
RMM:   3    -0.144535288746E+03    0.20005E-01   -0.30830E-02   422   0.426E-01    0.769E-01
RMM:   4    -0.144531514698E+03    0.37740E-02   -0.80088E-03   387   0.227E-01    0.535E-01
RMM:   5    -0.144528979534E+03    0.25352E-02   -0.23018E-03   388   0.114E-01    0.294E-01
RMM:   6    -0.144528113355E+03    0.86618E-03   -0.87063E-04   378   0.705E-02    0.200E-01
RMM:   7    -0.144528160806E+03   -0.47450E-04   -0.76205E-04   377   0.629E-02
   64 T=  2835. E= -.13280208E+03 F= -.14452816E+03 E0= -.14443683E+03  EK= 0.11726E+02 SP= 0.00E+00 SK= 0.00E+00
 bond charge predicted
 prediction of wavefunctions
       N       E                     dE             d eps       ncg     rms          rms(c)
DAV:   1    -0.144353096765E+03    0.17502E+00   -0.41015E+00   384   0.417E+00    0.670E-01
RMM:   2    -0.144534526066E+03   -0.18143E+00   -0.17989E-01   388   0.115E+00    0.402E+00
RMM:   3    -0.144374397281E+03    0.16013E+00   -0.46674E-02   385   0.569E-01    0.961E-01
RMM:   4    -0.144360268530E+03    0.14129E-01   -0.15388E-02   388   0.331E-01    0.457E-01
RMM:   5    -0.144359135489E+03    0.11330E-02   -0.33854E-03   389   0.138E-01    0.400E-01
RMM:   6    -0.144358058127E+03    0.10774E-02   -0.11699E-03   395   0.774E-02    0.252E-01
RMM:   7    -0.144357559953E+03    0.49817E-03   -0.61574E-04   325   0.616E-02    0.164E-01
RMM:   8    -0.144357588874E+03   -0.28921E-04   -0.59465E-04   341   0.621E-02
   65 T=  2805. E= -.13275590E+03 F= -.14435759E+03 E0= -.14426693E+03  EK= 0.11602E+02 SP= 0.00E+00 SK= 0.00E+00
 bond charge predicted
 prediction of wavefunctions
       N       E                     dE             d eps       ncg     rms          rms(c)
DAV:   1    -0.144347985409E+03    0.95745E-02   -0.10852E+01   384   0.648E+00    0.859E-01
RMM:   2    -0.144689648461E+03   -0.34166E+00   -0.31407E-01   386   0.145E+00    0.587E+00
RMM:   3    -0.144373730538E+03    0.31592E+00   -0.83581E-02   385   0.735E-01    0.965E-01
RMM:   4    -0.144361090552E+03    0.12640E-01   -0.25535E-02   385   0.422E-01    0.475E-01
RMM:   5    -0.144360144607E+03    0.94594E-03   -0.51510E-03   401   0.160E-01    0.448E-01
RMM:   6    -0.144358624779E+03    0.15198E-02   -0.16349E-03   386   0.942E-02    0.313E-01
RMM:   7    -0.144357990192E+03    0.63459E-03   -0.73243E-04   352   0.645E-02    0.211E-01
RMM:   8    -0.144358138093E+03   -0.14790E-03   -0.13341E-03   384   0.836E-02    0.240E-01
RMM:   9    -0.144357984938E+03    0.15315E-03   -0.10482E-03   383   0.726E-02    0.234E-01
RMM:  10    -0.144357501755E+03    0.48318E-03   -0.32979E-04   247   0.478E-02    0.795E-02
RMM:  11    -0.144357463141E+03    0.38615E-04   -0.17172E-04   213   0.424E-02
   66 T=  2689. E= -.13323591E+03 F= -.14435746E+03 E0= -.14426588E+03  EK= 0.11122E+02 SP= 0.00E+00 SK= 0.00E+00
 bond charge predicted
 prediction of wavefunctions
       N       E                     dE             d eps       ncg     rms          rms(c)
DAV:   1    -0.144242742418E+03    0.11476E+00   -0.12396E+01   384   0.685E+00    0.518E-01
RMM:   2    -0.144287205935E+03   -0.44464E-01   -0.24078E-01   385   0.133E+00    0.155E+00
RMM:   3    -0.144268246370E+03    0.18960E-01   -0.34127E-02   463   0.410E-01    0.750E-01
RMM:   4    -0.144263842805E+03    0.44036E-02   -0.77594E-03   385   0.230E-01    0.457E-01
RMM:   5    -0.144261740939E+03    0.21019E-02   -0.21417E-03   385   0.110E-01    0.296E-01
RMM:   6    -0.144261079894E+03    0.66104E-03   -0.82841E-04   363   0.680E-02    0.236E-01
RMM:   7    -0.144261368548E+03   -0.28865E-03   -0.96079E-04   384   0.725E-02    0.313E-01
RMM:   8    -0.144261179680E+03    0.18887E-03   -0.17287E-03   387   0.903E-02    0.282E-01
RMM:   9    -0.144260556937E+03    0.62274E-03   -0.13803E-03   384   0.813E-02    0.149E-01
RMM:  10    -0.144260365408E+03    0.19153E-03   -0.27134E-04   226   0.470E-02    0.964E-02
RMM:  11    -0.144260303443E+03    0.61965E-04   -0.13427E-04   207   0.378E-02
   67 T=  2983. E= -.13192238E+03 F= -.14426030E+03 E0= -.14416925E+03  EK= 0.12338E+02 SP= 0.00E+00 SK= 0.00E+00
 bond charge predicted
 prediction of wavefunctions
       N       E                     dE             d eps       ncg     rms          rms(c)
DAV:   1    -0.144152307759E+03    0.10806E+00   -0.10819E+01   384   0.641E+00    0.600E-01
RMM:   2    -0.144243575853E+03   -0.91268E-01   -0.23987E-01   385   0.134E+00    0.263E+00
RMM:   3    -0.144178225066E+03    0.65351E-01   -0.41078E-02   386   0.503E-01    0.833E-01
RMM:   4    -0.144170308886E+03    0.79162E-02   -0.11547E-02   386   0.282E-01    0.500E-01
RMM:   5    -0.144168333389E+03    0.19755E-02   -0.28951E-03   392   0.125E-01    0.345E-01
RMM:   6    -0.144167369788E+03    0.96360E-03   -0.81600E-04   363   0.657E-02    0.232E-01
RMM:   7    -0.144167073797E+03    0.29599E-03   -0.41193E-04   263   0.513E-02    0.198E-01
[...]
 1183 T=  2418. E= -.13098316E+03 F= -.14098404E+03 E0= -.14095414E+03  EK= 0.10001E+02 SP= 0.00E+00 SK= 0.00E+00
 bond charge predicted
 prediction of wavefunctions
       N       E                     dE             d eps       ncg     rms          rms(c)
DAV:   1    -0.140843564600E+03    0.14050E+00   -0.88234E+00   384   0.588E+00    0.451E-01
RMM:   2    -0.140876971413E+03   -0.33407E-01   -0.18040E-01   384   0.117E+00    0.129E+00
RMM:   3    -0.140862310387E+03    0.14661E-01   -0.24575E-02   397   0.385E-01    0.537E-01
RMM:   4    -0.140858778142E+03    0.35322E-02   -0.58908E-03   384   0.205E-01    0.338E-01
RMM:   5    -0.140857530248E+03    0.12479E-02   -0.12423E-03   382   0.821E-02    0.242E-01
RMM:   6    -0.140857001679E+03    0.52857E-03   -0.48488E-04   291   0.530E-02    0.180E-01
RMM:   7    -0.140857136367E+03   -0.13469E-03   -0.76035E-04   383   0.650E-02    0.250E-01
RMM:   8    -0.140856824030E+03    0.31234E-03   -0.15801E-03   384   0.867E-02    0.191E-01
RMM:   9    -0.140856423679E+03    0.40035E-03   -0.83571E-04   363   0.637E-02    0.839E-02
RMM:  10    -0.140856350591E+03    0.73088E-04   -0.16176E-04   213   0.357E-02
 1184 T=  1892. E= -.13303116E+03 F= -.14085635E+03 E0= -.14082674E+03  EK= 0.78252E+01 SP= 0.00E+00 SK= 0.00E+00
 bond charge predicted
 prediction of wavefunctions
       N       E                     dE             d eps       ncg     rms          rms(c)
DAV:   1    -0.140726290631E+03    0.13013E+00   -0.11517E+01   384   0.667E+00    0.527E-01
RMM:   2    -0.140785270402E+03   -0.58980E-01   -0.21511E-01   384   0.119E+00    0.185E+00
RMM:   3    -0.140748973389E+03    0.36297E-01   -0.31188E-02   385   0.434E-01    0.608E-01
RMM:   4    -0.140744164772E+03    0.48086E-02   -0.83741E-03   384   0.248E-01    0.410E-01
RMM:   5    -0.140742270242E+03    0.18945E-02   -0.17780E-03   386   0.994E-02    0.250E-01
RMM:   6    -0.140741831196E+03    0.43905E-03   -0.76286E-04   375   0.625E-02    0.231E-01
RMM:   7    -0.140741736326E+03    0.94871E-04   -0.99348E-04   387   0.714E-02
 1185 T=  2125. E= -.13195119E+03 F= -.14074174E+03 E0= -.14071300E+03  EK= 0.87905E+01 SP= 0.00E+00 SK= 0.00E+00
 bond charge predicted
 prediction of wavefunctions
       N       E                     dE             d eps       ncg     rms          rms(c)
DAV:   1    -0.140602283459E+03    0.13955E+00   -0.58328E+00   384   0.482E+00    0.471E-01
RMM:   2    -0.140660811293E+03   -0.58528E-01   -0.14699E-01   385   0.111E+00    0.207E+00
RMM:   3    -0.140618569673E+03    0.42242E-01   -0.25767E-02   384   0.410E-01    0.640E-01
RMM:   4    -0.140612690856E+03    0.58788E-02   -0.79647E-03   384   0.244E-01    0.338E-01
RMM:   5    -0.140611600342E+03    0.10905E-02   -0.17279E-03   385   0.102E-01    0.257E-01
RMM:   6    -0.140610983064E+03    0.61728E-03   -0.54825E-04   317   0.571E-02    0.175E-01
RMM:   7    -0.140610793398E+03    0.18967E-03   -0.47439E-04   294   0.564E-02    0.165E-01
RMM:   8    -0.140610840119E+03   -0.46721E-04   -0.10979E-03   384   0.795E-02    0.191E-01
RMM:   9    -0.140610675096E+03    0.16502E-03   -0.77833E-04   380   0.636E-02    0.153E-01
RMM:  10    -0.140610443239E+03    0.23186E-03   -0.23658E-04   216   0.423E-02    0.629E-02
RMM:  11    -0.140610401111E+03    0.42128E-04   -0.10965E-04   207   0.361E-02
 1186 T=  1961. E= -.13249710E+03 F= -.14061040E+03 E0= -.14058186E+03  EK= 0.81133E+01 SP= 0.00E+00 SK= 0.00E+00
 bond charge predicted
 prediction of wavefunctions
       N       E                     dE             d eps       ncg     rms          rms(c)
DAV:   1    -0.140459919662E+03    0.15052E+00   -0.82506E+00   384   0.569E+00    0.476E-01
RMM:   2    -0.140513497416E+03   -0.53578E-01   -0.17147E-01   384   0.117E+00    0.196E+00
RMM:   3    -0.140478830191E+03    0.34667E-01   -0.27493E-02   392   0.405E-01    0.539E-01
RMM:   4    -0.140474490644E+03    0.43395E-02   -0.76544E-03   384   0.240E-01    0.387E-01
RMM:   5    -0.140472812629E+03    0.16780E-02   -0.15876E-03   385   0.965E-02    0.216E-01
RMM:   6    -0.140472427383E+03    0.38525E-03   -0.58829E-04   324   0.595E-02    0.193E-01
RMM:   7    -0.140472297582E+03    0.12980E-03   -0.58936E-04   337   0.598E-02    0.194E-01
RMM:   8    -0.140472068270E+03    0.22931E-03   -0.14967E-03   384   0.852E-02    0.159E-01
RMM:   9    -0.140471830148E+03    0.23812E-03   -0.66349E-04   364   0.588E-02    0.984E-02
RMM:  10    -0.140471760738E+03    0.69410E-04   -0.13632E-04   211   0.346E-02
 1187 T=  1966. E= -.13234145E+03 F= -.14047176E+03 E0= -.14044449E+03  EK= 0.81303E+01 SP= 0.00E+00 SK= 0.00E+00
 bond charge predicted
 prediction of wavefunctions
       N       E                     dE             d eps       ncg     rms          rms(c)
DAV:   1    -0.140326223183E+03    0.14561E+00   -0.11670E+01   384   0.663E+00    0.470E-01
RMM:   2    -0.140364863629E+03   -0.38640E-01   -0.20278E-01   384   0.115E+00    0.145E+00
RMM:   3    -0.140347916452E+03    0.16947E-01   -0.25211E-02   425   0.366E-01    0.583E-01
RMM:   4    -0.140343661547E+03    0.42549E-02   -0.67584E-03   384   0.222E-01    0.353E-01
RMM:   5    -0.140342354390E+03    0.13072E-02   -0.13434E-03   384   0.857E-02    0.233E-01
RMM:   6    -0.140342036172E+03    0.31822E-03   -0.62747E-04   329   0.582E-02    0.202E-01
RMM:   7    -0.140342367648E+03   -0.33148E-03   -0.12676E-03   387   0.810E-02    0.275E-01
RMM:   8    -0.140341771613E+03    0.59604E-03   -0.19934E-03   384   0.919E-02    0.145E-01
RMM:   9    -0.140341560183E+03    0.21143E-03   -0.50761E-04   306   0.545E-02    0.906E-02
RMM:  10    -0.140341482459E+03    0.77724E-04   -0.13864E-04   210   0.377E-02
 1188 T=  2219. E= -.13116176E+03 F= -.14034148E+03 E0= -.14031522E+03  EK= 0.91797E+01 SP= 0.00E+00 SK= 0.00E+00
 bond charge predicted
 prediction of wavefunctions
       N       E                     dE             d eps       ncg     rms          rms(c)
DAV:   1    -0.140226023967E+03    0.11554E+00   -0.54540E+00   384   0.460E+00    0.421E-01
RMM:   2    -0.140250755189E+03   -0.24731E-01   -0.12757E-01   384   0.100E+00    0.116E+00
RMM:   3    -0.140238906208E+03    0.11849E-01   -0.19197E-02   402   0.326E-01    0.570E-01
RMM:   4    -0.140235745671E+03    0.31605E-02   -0.51912E-03   384   0.191E-01    0.327E-01
RMM:   5    -0.140234679702E+03    0.10660E-02   -0.13565E-03   376   0.883E-02    0.224E-01
RMM:   6    -0.140234146591E+03    0.53311E-03   -0.43180E-04   281   0.523E-02    0.133E-01
RMM:   7    -0.140234165044E+03   -0.18453E-04   -0.28443E-04   226   0.482E-02
 1189 T=  2348. E= -.13052131E+03 F= -.14023417E+03 E0= -.14020946E+03  EK= 0.97129E+01 SP= 0.00E+00 SK= 0.00E+00
 bond charge predicted
 prediction of wavefunctions
       N       E                     dE             d eps       ncg     rms          rms(c)
DAV:   1    -0.140096819295E+03    0.13733E+00   -0.96283E+00   384   0.614E+00    0.482E-01
RMM:   2    -0.140124118206E+03   -0.27299E-01   -0.20057E-01   384   0.130E+00    0.101E+00
RMM:   3    -0.140118456590E+03    0.56616E-02   -0.30850E-02   482   0.384E-01    0.653E-01
RMM:   4    -0.140114747193E+03    0.37094E-02   -0.52286E-03   384   0.194E-01    0.389E-01
RMM:   5    -0.140112772409E+03    0.19748E-02   -0.15804E-03   384   0.973E-02    0.221E-01
RMM:   6    -0.140112414057E+03    0.35835E-03   -0.67026E-04   348   0.615E-02    0.189E-01
RMM:   7    -0.140112785738E+03   -0.37168E-03   -0.13802E-03   384   0.848E-02    0.284E-01
RMM:   8    -0.140112251967E+03    0.53377E-03   -0.11970E-03   385   0.743E-02    0.185E-01
RMM:   9    -0.140111922312E+03    0.32965E-03   -0.51781E-04   306   0.574E-02    0.963E-02
RMM:  10    -0.140111840189E+03    0.82123E-04   -0.17780E-04   212   0.413E-02
 1190 T=  2274. E= -.13070392E+03 F= -.14011184E+03 E0= -.14008714E+03  EK= 0.94079E+01 SP= 0.00E+00 SK= 0.00E+00
 bond charge predicted
 prediction of wavefunctions
       N       E                     dE             d eps       ncg     rms          rms(c)
DAV:   1    -0.139929003772E+03    0.18292E+00   -0.10214E+01   384   0.633E+00    0.630E-01
RMM:   2    -0.140006416420E+03   -0.77413E-01   -0.23262E-01   384   0.126E+00    0.230E+00
RMM:   3    -0.139952861511E+03    0.53555E-01   -0.40018E-02   384   0.498E-01    0.842E-01
RMM:   4    -0.139944010650E+03    0.88509E-02   -0.12921E-02   384   0.306E-01    0.392E-01
RMM:   5    -0.139942137794E+03    0.18729E-02   -0.24679E-03   384   0.122E-01    0.255E-01
RMM:   6    -0.139941543214E+03    0.59458E-03   -0.71842E-04   345   0.600E-02    0.188E-01
RMM:   7    -0.139941419706E+03    0.12351E-03   -0.68662E-04   373   0.608E-02    0.192E-01
RMM:   8    -0.139941642475E+03   -0.22277E-03   -0.99352E-04   383   0.701E-02    0.251E-01
RMM:   9    -0.139941085044E+03    0.55743E-03   -0.10502E-03   384   0.705E-02    0.117E-01
RMM:  10    -0.139940928552E+03    0.15649E-03   -0.23096E-04   219   0.425E-02    0.658E-02
RMM:  11    -0.139940910876E+03    0.17676E-04   -0.10276E-04   206   0.331E-02
 1191 T=  2685. E= -.12883313E+03 F= -.13994091E+03 E0= -.13991628E+03  EK= 0.11108E+02 SP= 0.00E+00 SK= 0.00E+00
 bond charge predicted
 prediction of wavefunctions
       N       E                     dE             d eps       ncg     rms          rms(c)
DAV:   1    -0.139749569935E+03    0.19136E+00   -0.14680E+01   384   0.758E+00    0.710E-01
RMM:   2    -0.139847125041E+03   -0.97555E-01   -0.32026E-01   384   0.156E+00    0.267E+00
RMM:   3    -0.139783760439E+03    0.63365E-01   -0.52335E-02   384   0.568E-01    0.963E-01
RMM:   4    -0.139774711649E+03    0.90488E-02   -0.17130E-02   384   0.350E-01    0.568E-01
RMM:   5    -0.139771176871E+03    0.35348E-02   -0.41041E-03   384   0.159E-01    0.339E-01
RMM:   6    -0.139770012392E+03    0.11645E-02   -0.13574E-03   384   0.873E-02    0.255E-01
RMM:   7    -0.139769987278E+03    0.25114E-04   -0.10631E-03   386   0.764E-02    0.283E-01
RMM:   8    -0.139769646494E+03    0.34078E-03   -0.18213E-03   384   0.940E-02    0.234E-01
RMM:   9    -0.139769133810E+03    0.51268E-03   -0.14166E-03   384   0.835E-02    0.146E-01
RMM:  10    -0.139768956691E+03    0.17712E-03   -0.30029E-04   235   0.480E-02    0.918E-02
RMM:  11    -0.139768881607E+03    0.75084E-04   -0.15198E-04   211   0.408E-02
 1192 T=  2860. E= -.12793767E+03 F= -.13976888E+03 E0= -.13974222E+03  EK= 0.11831E+02 SP= 0.00E+00 SK= 0.00E+00
 bond charge predicted
 prediction of wavefunctions
       N       E                     dE             d eps       ncg     rms          rms(c)
DAV:   1    -0.139634685487E+03    0.13427E+00   -0.46170E+00   384   0.440E+00    0.390E-01
RMM:   2    -0.139674239579E+03   -0.39554E-01   -0.12512E-01   384   0.102E+00    0.172E+00
RMM:   3    -0.139648026265E+03    0.26213E-01   -0.20489E-02   385   0.359E-01    0.503E-01
RMM:   4    -0.139645129046E+03    0.28972E-02   -0.63159E-03   384   0.211E-01    0.337E-01
RMM:   5    -0.139643931990E+03    0.11971E-02   -0.12158E-03   380   0.859E-02    0.200E-01
RMM:   6    -0.139643570048E+03    0.36194E-03   -0.35683E-04   261   0.506E-02    0.138E-01
RMM:   7    -0.139643449746E+03    0.12030E-03   -0.27314E-04   228   0.476E-02    0.124E-01
RMM:   8    -0.139643379015E+03    0.70731E-04   -0.59128E-04   340   0.601E-02
 1193 T=  2716. E= -.12840902E+03 F= -.13964338E+03 E0= -.13961578E+03  EK= 0.11234E+02 SP= 0.00E+00 SK= 0.00E+00
 bond charge predicted
 prediction of wavefunctions
       N       E                     dE             d eps       ncg     rms          rms(c)
DAV:   1    -0.139636072166E+03    0.73776E-02   -0.11681E+01   384   0.670E+00    0.572E-01
RMM:   2    -0.139683932388E+03   -0.47860E-01   -0.22940E-01   384   0.121E+00    0.158E+00
RMM:   3    -0.139659318653E+03    0.24614E-01   -0.33342E-02   384   0.471E-01    0.746E-01
RMM:   4    -0.139654702905E+03    0.46157E-02   -0.99504E-03   384   0.254E-01    0.496E-01
RMM:   5    -0.139652471432E+03    0.22315E-02   -0.25907E-03   385   0.124E-01    0.300E-01
RMM:   6    -0.139651624449E+03    0.84698E-03   -0.90504E-04   372   0.705E-02    0.233E-01
RMM:   7    -0.139651524236E+03    0.10021E-03   -0.74781E-04   365   0.643E-02    0.236E-01
RMM:   8    -0.139651372373E+03    0.15186E-03   -0.18369E-03   384   0.967E-02    0.200E-01
RMM:   9    -0.139650989446E+03    0.38293E-03   -0.89481E-04   375   0.666E-02    0.130E-01
RMM:  10    -0.139650824532E+03    0.16491E-03   -0.18477E-04   214   0.385E-02    0.598E-02
RMM:  11    -0.139650805791E+03    0.18741E-04   -0.97535E-05   206   0.320E-02
 1194 T=  2526. E= -.12920417E+03 F= -.13965081E+03 E0= -.13962259E+03  EK= 0.10447E+02 SP= 0.00E+00 SK= 0.00E+00
 bond charge predicted
 prediction of wavefunctions
       N       E                     dE             d eps       ncg     rms          rms(c)
DAV:   1    -0.139650604448E+03    0.22008E-03   -0.10998E+01   384   0.655E+00    0.560E-01
RMM:   2    -0.139708360050E+03   -0.57756E-01   -0.22993E-01   384   0.133E+00    0.194E+00
RMM:   3    -0.139673701506E+03    0.34659E-01   -0.36385E-02   386   0.463E-01    0.680E-01
RMM:   4    -0.139668906264E+03    0.47952E-02   -0.88264E-03   384   0.257E-01    0.461E-01
RMM:   5    -0.139666567431E+03    0.23388E-02   -0.21496E-03   384   0.115E-01    0.253E-01
RMM:   6    -0.139665913033E+03    0.65440E-03   -0.75480E-04   361   0.631E-02    0.214E-01
RMM:   7    -0.139665931644E+03   -0.18610E-04   -0.80394E-04   383   0.634E-02
 1195 T=  3429. E= -.12548172E+03 F= -.13966593E+03 E0= -.13963668E+03  EK= 0.14184E+02 SP= 0.00E+00 SK= 0.00E+00
 bond charge predicted
 prediction of wavefunctions
       N       E                     dE             d eps       ncg     rms          rms(c)
DAV:   1    -0.139716754604E+03   -0.50842E-01   -0.17662E+01   384   0.832E+00    0.780E-01
RMM:   2    -0.139841311174E+03   -0.12456E+00   -0.40588E-01   384   0.179E+00    0.304E+00
RMM:   3    -0.139760945945E+03    0.80365E-01   -0.64437E-02   387   0.620E-01    0.111E+00
RMM:   4    -0.139746431746E+03    0.14514E-01   -0.20879E-02   384   0.385E-01    0.572E-01
RMM:   5    -0.139743200350E+03    0.32314E-02   -0.47399E-03   385   0.167E-01    0.410E-01
RMM:   6    -0.139741967105E+03    0.12332E-02   -0.14646E-03   384   0.890E-02    0.319E-01
RMM:   7    -0.139741288006E+03    0.67910E-03   -0.10797E-03   384   0.783E-02    0.247E-01
RMM:   8    -0.139741460680E+03   -0.17267E-03   -0.22428E-03   385   0.106E-01    0.302E-01
RMM:   9    -0.139740922586E+03    0.53809E-03   -0.20376E-03   384   0.982E-02    0.235E-01
RMM:  10    -0.139740392951E+03    0.52963E-03   -0.60245E-04   339   0.621E-02    0.928E-02
RMM:  11    -0.139740341134E+03    0.51817E-04   -0.20649E-04   216   0.425E-02
 1196 T=  3456. E= -.12544368E+03 F= -.13974034E+03 E0= -.13970979E+03  EK= 0.14297E+02 SP= 0.00E+00 SK= 0.00E+00
 bond charge predicted
 prediction of wavefunctions
       N       E                     dE             d eps       ncg     rms          rms(c)
DAV:   1    -0.139804799852E+03   -0.64407E-01   -0.17940E+01   384   0.834E+00    0.626E-01
RMM:   2    -0.139888444898E+03   -0.83645E-01   -0.34989E-01   384   0.164E+00    0.227E+00
RMM:   3    -0.139842939140E+03    0.45506E-01   -0.50498E-02   401   0.533E-01    0.927E-01
RMM:   4    -0.139834836197E+03    0.81029E-02   -0.13374E-02   384   0.310E-01    0.528E-01
RMM:   5    -0.139831816779E+03    0.30194E-02   -0.30590E-03   384   0.136E-01    0.344E-01
RMM:   6    -0.139830936576E+03    0.88020E-03   -0.95745E-04   382   0.731E-02    0.270E-01
RMM:   7    -0.139830702311E+03    0.23426E-03   -0.12304E-03   385   0.799E-02    0.281E-01
RMM:   8    -0.139830375613E+03    0.32670E-03   -0.32097E-03   384   0.121E-01    0.254E-01
RMM:   9    -0.139829591802E+03    0.78381E-03   -0.18513E-03   384   0.909E-02    0.919E-02
RMM:  10    -0.139829508684E+03    0.83118E-04   -0.29227E-04   237   0.497E-02
 1197 T=  3358. E= -.12594096E+03 F= -.13982951E+03 E0= -.13979868E+03  EK= 0.13889E+02 SP= 0.00E+00 SK= 0.00E+00
 bond charge predicted
 prediction of wavefunctions
       N       E                     dE             d eps       ncg     rms          rms(c)
DAV:   1    -0.139749046811E+03    0.80545E-01   -0.13571E+01   384   0.730E+00    0.836E-01
RMM:   2    -0.139925686438E+03   -0.17664E+00   -0.38092E-01   384   0.174E+00    0.370E+00
RMM:   3    -0.139790200247E+03    0.13549E+00   -0.74815E-02   384   0.701E-01    0.125E+00
RMM:   4    -0.139772031941E+03    0.18168E-01   -0.23540E-02   384   0.407E-01    0.549E-01
RMM:   5    -0.139768558380E+03    0.34736E-02   -0.50436E-03   386   0.173E-01    0.336E-01
RMM:   6    -0.139767652332E+03    0.90605E-03   -0.12786E-03   395   0.787E-02    0.291E-01
RMM:   7    -0.139767130648E+03    0.52168E-03   -0.62566E-04   327   0.581E-02    0.230E-01
RMM:   8    -0.139767059885E+03    0.70763E-04   -0.13526E-03   384   0.851E-02    0.241E-01
RMM:   9    -0.139767006775E+03    0.53110E-04   -0.17615E-03   384   0.923E-02    0.267E-01
RMM:  10    -0.139766374767E+03    0.63201E-03   -0.69132E-04   348   0.647E-02    0.861E-02
RMM:  11    -0.139766272666E+03    0.10210E-03   -0.23247E-04   222   0.459E-02    0.712E-02
RMM:  12    -0.139766244130E+03    0.28537E-04   -0.98650E-05   206   0.341E-02
 1198 T=  2958. E= -.12753047E+03 F= -.13976624E+03 E0= -.13973415E+03  EK= 0.12236E+02 SP= 0.00E+00 SK= 0.00E+00
 bond charge predicted
 prediction of wavefunctions
       N       E                     dE             d eps       ncg     rms          rms(c)
DAV:   1    -0.139779319455E+03   -0.13047E-01   -0.13001E+01   384   0.713E+00    0.531E-01
RMM:   2    -0.139821852616E+03   -0.42533E-01   -0.25634E-01   384   0.140E+00    0.140E+00
RMM:   3    -0.139805426039E+03    0.16427E-01   -0.34898E-02   444   0.421E-01    0.684E-01
RMM:   4    -0.139801866172E+03    0.35599E-02   -0.73576E-03   384   0.226E-01    0.500E-01
RMM:   5    -0.139799470752E+03    0.23954E-02   -0.21300E-03   384   0.112E-01    0.284E-01
RMM:   6    -0.139798652766E+03    0.81799E-03   -0.86897E-04   379   0.708E-02    0.197E-01
RMM:   7    -0.139798807661E+03   -0.15489E-03   -0.85161E-04   381   0.672E-02    0.277E-01
RMM:   8    -0.139798751734E+03    0.55927E-04   -0.16768E-03   384   0.895E-02    0.276E-01
RMM:   9    -0.139798123519E+03    0.62822E-03   -0.10376E-03   383   0.734E-02    0.140E-01
RMM:  10    -0.139797930017E+03    0.19350E-03   -0.27530E-04   231   0.472E-02    0.803E-02
RMM:  11    -0.139797896090E+03    0.33928E-04   -0.12786E-04   207   0.366E-02
 1199 T=  2802. E= -.12820659E+03 F= -.13979790E+03 E0= -.13976460E+03  EK= 0.11591E+02 SP= 0.00E+00 SK= 0.00E+00
 bond charge predicted
 prediction of wavefunctions
       N       E                     dE             d eps       ncg     rms          rms(c)
DAV:   1    -0.139778227322E+03    0.19703E-01   -0.10494E+01   384   0.640E+00    0.511E-01
RMM:   2    -0.139827099174E+03   -0.48872E-01   -0.21343E-01   384   0.130E+00    0.164E+00
RMM:   3    -0.139801655785E+03    0.25443E-01   -0.33332E-02   391   0.440E-01    0.730E-01
RMM:   4    -0.139797084333E+03    0.45715E-02   -0.82466E-03   384   0.246E-01    0.464E-01
RMM:   5    -0.139794891139E+03    0.21932E-02   -0.20976E-03   384   0.115E-01    0.283E-01
RMM:   6    -0.139794238930E+03    0.65221E-03   -0.64191E-04   326   0.612E-02    0.234E-01
RMM:   7    -0.139793940142E+03    0.29879E-03   -0.70363E-04   374   0.641E-02    0.207E-01
RMM:   8    -0.139793903277E+03    0.36865E-04   -0.16978E-03   384   0.906E-02    0.231E-01
RMM:   9    -0.139793576412E+03    0.32686E-03   -0.12645E-03   384   0.765E-02    0.171E-01
RMM:  10    -0.139793304301E+03    0.27211E-03   -0.31942E-04   246   0.481E-02    0.862E-02
RMM:  11    -0.139793244130E+03    0.60171E-04   -0.14016E-04   209   0.387E-02
 1200 T=  3441. E= -.12556170E+03 F= -.13979324E+03 E0= -.13975793E+03  EK= 0.14232E+02 SP= 0.00E+00 SK= 0.00E+00
 bond charge predicted
 prediction of wavefunctions
 wavefunctions rotated
