Pt cube particle                        
           1
    16.000000    0.000000    0.000000
     0.000000   16.000000    0.000000
     0.000000    0.000000   16.000000
   Pt
  32
Direct configuration=     1
   0.31197631  0.31235323  0.31233074
   0.43792432  0.43678036  0.31197413
   0.43651785  0.31305918  0.43674722
   0.31213205  0.43767766  0.43785917
   0.56280341  0.31270633  0.31207211
   0.68661412  0.43757632  0.31288978
   0.68628494  0.31223894  0.43642877
   0.56081779  0.43703356  0.43675277
   0.31240791  0.56218678  0.31284417
   0.43690195  0.68720527  0.31254824
   0.43720193  0.56157296  0.43692620
   0.31294006  0.68675627  0.43676994
   0.56276672  0.56202488  0.31232259
   0.68663435  0.68645804  0.31191407
   0.68627158  0.56176745  0.43632820
   0.56273894  0.68672682  0.43752070
   0.31306135  0.31202978  0.56221122
   0.43744379  0.43615526  0.56209016
   0.43705953  0.31220412  0.68665369
   0.31300011  0.43750725  0.68720794
   0.56225047  0.31239357  0.56188547
   0.68654164  0.43740370  0.56194377
   0.68719368  0.31175267  0.68610240
   0.56223110  0.43803243  0.68651479
   0.31255585  0.56175339  0.56304639
   0.43645936  0.68733802  0.56218443
   0.43667437  0.56122955  0.68702949
   0.31249796  0.68745319  0.68766843
   0.56189094  0.56180359  0.56234846
   0.68674019  0.68667073  0.56199806
   0.68740773  0.56246124  0.68692510
   0.56105772  0.68668746  0.68696141
Direct configuration=     2
   0.31138122  0.31244835  0.31254410
   0.43870353  0.43634921  0.31151803
   0.43589136  0.31371164  0.43625796
   0.31192663  0.43814253  0.43848076
   0.56366458  0.31301652  0.31172564
   0.68647653  0.43794575  0.31335981
   0.68581733  0.31208252  0.43562787
   0.55970054  0.43685679  0.43627253
   0.31262694  0.56174890  0.31343934
   0.43666681  0.68758942  0.31267758
   0.43702032  0.56244018  0.43634450
   0.31355356  0.68669142  0.43631000
   0.56359609  0.56204742  0.31221464
   0.68651288  0.68609237  0.31141165
   0.68705698  0.56133738  0.43612021
   0.56354060  0.68664440  0.43780553
   0.31201627  0.31219844  0.56259342
   0.43774427  0.43510110  0.56215097
   0.43708976  0.31209107  0.68665259
   0.31367185  0.43780770  0.68757183
   0.56256588  0.31238074  0.56174467
   0.68634171  0.43759483  0.56185990
   0.68697476  0.31121522  0.68603790
   0.56252659  0.43885155  0.68619675
   0.31277361  0.56150386  0.56406402
   0.43577574  0.68786528  0.56234095
   0.43620535  0.56045618  0.68722554
   0.31236923  0.68719914  0.68773715
   0.56184487  0.56160310  0.56266695
   0.68672741  0.68652037  0.56196268
   0.68806267  0.56291279  0.68700657
   0.56017412  0.68655384  0.68707795
Direct configuration=     3
   0.31132685  0.31262642  0.31255304
   0.43952971  0.43589527  0.31101364
   0.43531359  0.31434731  0.43571162
   0.31177901  0.43858348  0.43904462
   0.56457416  0.31332213  0.31134178
   0.68637430  0.43829682  0.31379211
   0.68538406  0.31192221  0.43477660
   0.55863982  0.43665895  0.43573925
   0.31291513  0.56128558  0.31399699
   0.43648824  0.68793489  0.31277027
   0.43688943  0.56328763  0.43570976
   0.31423632  0.68658794  0.43579990
   0.56447804  0.56205191  0.31205836
   0.68690854  0.68635481  0.31100099
   0.68788828  0.56088866  0.43585777
   0.56288750  0.68732435  0.43778914
   0.31104132  0.31236368  0.56291806
   0.43809408  0.43402784  0.56215855
   0.43705750  0.31128145  0.68691890
   0.31441192  0.43808922  0.68786466
   0.56293651  0.31235313  0.56155387
   0.68531223  0.43728905  0.56186143
   0.68653917  0.31138466  0.68593877
   0.56287695  0.43964478  0.68581923
   0.31304982  0.56123642  0.56502800
   0.43588917  0.68792525  0.56319552
   0.43578690  0.55966548  0.68736124
   0.31231366  0.68690343  0.68773006
   0.56185108  0.56138457  0.56293046
   0.68701262  0.68725788  0.56207057
   0.68787509  0.56244401  0.68757285
   0.55933900  0.68638078  0.68712199
Direct configuration=     4
   0.31136103  0.31274411  0.31255284
   0.43954098  0.43665924  0.31127949
   0.43479911  0.31490571  0.43513187
   0.31170512  0.43893960  0.43957501
   0.56554805  0.31356195  0.31094404
   0.68632377  0.43856896  0.31420983
   0.68500141  0.31169689  0.43389913
   0.55765181  0.43638165  0.43517763
   0.31328741  0.56073630  0.31454099
   0.43638154  0.68818159  0.31285048
   0.43682536  0.56405348  0.43504738
   0.31500403  0.68638574  0.43526392
   0.56470683  0.56190848  0.31191214
   0.68735090  0.68651519  0.31058155
   0.68776436  0.56055863  0.43595184
   0.56230241  0.68791483  0.43774028
   0.31015171  0.31246500  0.56320954
   0.43850805  0.43287603  0.56213713
   0.43709602  0.31040763  0.68713757
   0.31523558  0.43829011  0.68811048
   0.56337691  0.31224965  0.56133671
   0.68434484  0.43689930  0.56183411
   0.68615011  0.31149325  0.68578920
   0.56329690  0.44035127  0.68540787
   0.31340052  0.56089075  0.56596217
   0.43606899  0.68789513  0.56402186
   0.43543528  0.55879766  0.68746158
   0.31234634  0.68650614  0.68767202
   0.56238376  0.56227154  0.56290683
   0.68734712  0.68789496  0.56214614
   0.68773578  0.56189154  0.68809071
   0.55856799  0.68610768  0.68711767
Direct configuration=     5
   0.31140267  0.31296564  0.31244326
   0.43953343  0.43750351  0.31141975
   0.43426689  0.31555062  0.43441819
   0.31162361  0.43937529  0.43997285
   0.56650504  0.31389993  0.31043154
   0.68624420  0.43892604  0.31451280
   0.68517794  0.31127305  0.43434587
   0.55665710  0.43619050  0.43448856
   0.31366223  0.56026526  0.31497094
   0.43626599  0.68849495  0.31281736
   0.43661581  0.56379632  0.43518061
   0.31577534  0.68624939  0.43460244
   0.56492279  0.56185263  0.31164241
   0.68748553  0.68600656  0.31021186
   0.68761870  0.56031546  0.43591557
   0.56170716  0.68857842  0.43755883
   0.31037211  0.31288128  0.56370988
   0.43890561  0.43181154  0.56198642
   0.43712460  0.30963419  0.68720843
   0.31606151  0.43857364  0.68820983
   0.56380590  0.31223398  0.56099294
   0.68335926  0.43659006  0.56167712
   0.68572679  0.31170526  0.68548873
   0.56370503  0.44113503  0.68486333
   0.31374451  0.56063107  0.56676568
   0.43623379  0.68793949  0.56471890
   0.43578686  0.55893345  0.68777646
   0.31238608  0.68617156  0.68746378
   0.56201139  0.56230111  0.56359025
   0.68696630  0.68789536  0.56219031
   0.68756532  0.56142052  0.68845998
   0.55778051  0.68589887  0.68696513
Direct configuration=     6
   0.31145005  0.31325156  0.31232739
   0.43950499  0.43838779  0.31153625
   0.43441993  0.31521017  0.43451750
   0.31153212  0.43985077  0.44034146
   0.56744368  0.31429612  0.30990729
   0.68613425  0.43932887  0.31480440
   0.68532251  0.31090839  0.43476903
   0.55565707  0.43604600  0.43377605
   0.31403810  0.55983334  0.31538919
   0.43614065  0.68883571  0.31277370
   0.43639087  0.56358251  0.43529197
   0.31654895  0.68614002  0.43391870
   0.56512421  0.56184514  0.31135190
   0.68719208  0.68604634  0.31021788
   0.68744942  0.56011957  0.43585242
   0.56109996  0.68927566  0.43734938
   0.31059544  0.31335869  0.56418055
   0.43928509  0.43079622  0.56181107
   0.43714158  0.30892159  0.68723461
   0.31688842  0.43889997  0.68826619
   0.56422109  0.31226564  0.56062577
   0.68235515  0.43632244  0.56149267
   0.68526791  0.31198071  0.68514090
   0.56381294  0.44155409  0.68494853
   0.31407954  0.56041788  0.56754095
   0.43638170  0.68801947  0.56538927
   0.43612369  0.55911706  0.68805949
   0.31243103  0.68586017  0.68720890
   0.56207751  0.56190220  0.56321953
   0.68655172  0.68791923  0.56220432
   0.68736255  0.56099143  0.68878439
   0.55697576  0.68571521  0.68676834
Direct configuration=     7
   0.31149747  0.31356654  0.31217951
   0.43968634  0.43911750  0.31180999
   0.43461856  0.31501066  0.43481388
   0.31142487  0.44033025  0.44065592
   0.56835812  0.31471524  0.30934531
   0.68598812  0.43974174  0.31505878
   0.68542965  0.31056784  0.43514302
   0.55464841  0.43591324  0.43301568
   0.31440894  0.55940512  0.31576971
   0.43600012  0.68916899  0.31269366
   0.43614601  0.56337809  0.43535685
   0.31653320  0.68560437  0.43365871
   0.56530566  0.56185132  0.31101580
   0.68685634  0.68607319  0.31019294
   0.68725061  0.55993634  0.43573688
   0.56047522  0.68997043  0.43708687
   0.31081582  0.31386147  0.56459607
   0.43964048  0.42979667  0.56158614
   0.43714145  0.30823449  0.68719085
   0.31770976  0.43923357  0.68825462
   0.56461666  0.31230897  0.56020974
   0.68132788  0.43606129  0.56125465
   0.68476846  0.31228410  0.68472092
   0.56390023  0.44197480  0.68498042
   0.31440004  0.56021587  0.56826173
   0.43650660  0.68809988  0.56600598
   0.43644066  0.55931298  0.68828568
   0.31247549  0.68553710  0.68688233
   0.56212211  0.56151583  0.56278987
   0.68609743  0.68793157  0.56216191
   0.68712234  0.56056969  0.68903877
   0.55728693  0.68571084  0.68724683
Direct configuration=     8
   0.31155901  0.31388819  0.31207108
   0.43981691  0.43987779  0.31179455
   0.43480406  0.31479828  0.43512310
   0.31131567  0.44079056  0.44098757
   0.56892891  0.31474114  0.30926361
   0.68582004  0.44014148  0.31534655
   0.68551268  0.31022886  0.43553838
   0.55364601  0.43576885  0.43227955
   0.31510961  0.55920410  0.31593345
   0.43585802  0.68947237  0.31264802
   0.43589568  0.56316171  0.43544733
   0.31652718  0.68503815  0.43342251
   0.56548055  0.56184903  0.31070500
   0.68660552  0.68665579  0.30986684
   0.68679151  0.55983590  0.43478747
   0.55984658  0.69063973  0.43684275
   0.31104658  0.31436680  0.56502770
   0.43998460  0.42879166  0.56138459
   0.43713810  0.30754967  0.68714834
   0.31853907  0.43955140  0.68824666
   0.56500552  0.31233985  0.55981616
   0.68029211  0.43578441  0.56103392
   0.68424199  0.31259285  0.68429964
   0.56397997  0.44237384  0.68503031
   0.31471948  0.56000237  0.56899771
   0.43662240  0.68815782  0.56663994
   0.43675209  0.55949841  0.68852578
   0.31253286  0.68518038  0.68655575
   0.56195362  0.56122903  0.56284909
   0.68622470  0.68768298  0.56236468
   0.68685845  0.56013247  0.68929416
   0.55759055  0.68567416  0.68772779
Direct configuration=     9
   0.31161834  0.31423231  0.31199302
   0.43991692  0.44063234  0.31178687
   0.43471144  0.31428461  0.43506922
   0.31118787  0.44124709  0.44132662
   0.56947170  0.31478268  0.30920604
   0.68574427  0.44075461  0.31599807
   0.68555524  0.30990802  0.43594497
   0.55263450  0.43562958  0.43155858
   0.31505473  0.55937323  0.31601093
   0.43569779  0.68976231  0.31262721
   0.43562597  0.56258546  0.43590888
   0.31651446  0.68445835  0.43320101
   0.56563212  0.56185477  0.31040978
   0.68630983  0.68721880  0.30957145
   0.68629968  0.55974216  0.43384882
   0.55919698  0.69129995  0.43660803
   0.31086745  0.31426165  0.56498229
   0.44101802  0.42835871  0.56095863
   0.43711507  0.30688374  0.68709805
   0.31935946  0.43986900  0.68823289
   0.56537059  0.31237321  0.55943495
   0.68053559  0.43561472  0.56102859
   0.68367267  0.31292229  0.68386862
   0.56403482  0.44276725  0.68508980
   0.31502090  0.55979412  0.56973849
   0.43671276  0.68820956  0.56728063
   0.43704196  0.55968943  0.68877066
   0.31258614  0.68480646  0.68622074
   0.56176031  0.56094970  0.56291130
   0.68630855  0.68741626  0.56257254
   0.68655414  0.55969633  0.68954133
   0.55786973  0.68562129  0.68820101
Direct configuration=    10
   0.31175738  0.31458578  0.31187926
   0.44006714  0.44136778  0.31171898
   0.43374696  0.31376695  0.43514484
   0.31114365  0.44068623  0.44131190
   0.56996153  0.31488923  0.30908633
   0.68571232  0.44135589  0.31660575
   0.68563923  0.30959165  0.43629612
   0.55169882  0.43548215  0.43078786
   0.31507103  0.55952617  0.31604378
   0.43560140  0.69002543  0.31256479
   0.43541771  0.56200224  0.43632140
   0.31657713  0.68385147  0.43292794
   0.56584195  0.56185605  0.31006341
   0.68605064  0.68774886  0.30924024
   0.68601140  0.55947779  0.43486106
   0.55860847  0.69193630  0.43631682
   0.31076356  0.31416113  0.56487687
   0.44135622  0.42818926  0.56150802
   0.43735429  0.30732767  0.68717139
   0.32025251  0.44017192  0.68814740
   0.56579326  0.31239497  0.55899929
   0.68034679  0.43551915  0.56086350
   0.68314244  0.31325802  0.68336157
   0.56414588  0.44314050  0.68509307
   0.31538626  0.55957695  0.57041711
   0.43626583  0.68861749  0.56699620
   0.43739262  0.55987230  0.68895409
   0.31304868  0.68470227  0.68500939
   0.56166400  0.56032734  0.56309736
   0.68643028  0.68711754  0.56271887
   0.68654400  0.55893480  0.69001507
   0.55820662  0.68553870  0.68860030
Direct configuration=    11
   0.31197848  0.31494658  0.31165666
   0.44018380  0.44218690  0.31254475
   0.43283682  0.31323764  0.43508381
   0.31116548  0.44010597  0.44116589
   0.57050818  0.31499647  0.30885201
   0.68572723  0.44194346  0.31709679
   0.68576794  0.30927777  0.43651894
   0.55123639  0.43503592  0.43063991
   0.31516131  0.55966074  0.31595918
   0.43557202  0.69026011  0.31238839
   0.43527341  0.56141123  0.43661305
   0.31671807  0.68321597  0.43253118
   0.56575535  0.56179140  0.31027055
   0.68528664  0.68825324  0.30940138
   0.68577514  0.55920618  0.43574651
   0.55843310  0.69300640  0.43686154
   0.31018032  0.31514731  0.56507006
   0.44134269  0.42785725  0.56170822
   0.43765895  0.30777490  0.68709781
   0.31990154  0.43979255  0.68799938
   0.56627542  0.31240286  0.55843648
   0.68025787  0.43527225  0.56095268
   0.68265485  0.31359751  0.68270648
   0.56484932  0.44358593  0.68443381
   0.31581813  0.55934911  0.57095941
   0.43588049  0.68900303  0.56657822
   0.43780743  0.56004575  0.68900383
   0.31359043  0.68456687  0.68365233
   0.56162816  0.55969925  0.56314505
   0.68659257  0.68678507  0.56273084
   0.68657907  0.55815952  0.69034240
   0.55860338  0.68542486  0.68885245
Direct configuration=    12
   0.31206466  0.31583260  0.31203329
   0.44032953  0.44298472  0.31326592
   0.43195908  0.31269795  0.43491786
   0.31123028  0.43950828  0.44091996
   0.57047307  0.31570490  0.30902621
   0.68576714  0.44251819  0.31750213
   0.68591901  0.30896729  0.43664444
   0.55083260  0.43457858  0.43040442
   0.31501268  0.55946017  0.31681154
   0.43514239  0.68981862  0.31198375
   0.43517043  0.56081477  0.43681579
   0.31691448  0.68255376  0.43204242
   0.56570780  0.56172290  0.31038594
   0.68453863  0.68872375  0.30948547
   0.68556866  0.55892910  0.43653616
   0.55829840  0.69404968  0.43730898
   0.30965248  0.31613673  0.56516211
   0.44136093  0.42752141  0.56181458
   0.43800709  0.30822677  0.68690865
   0.31960235  0.43939748  0.68773931
   0.56679379  0.31239748  0.55777711
   0.67993458  0.43595356  0.56026546
   0.68278258  0.31374106  0.68306083
   0.56557953  0.44352750  0.68433289
   0.31629385  0.55911107  0.57139616
   0.43553536  0.68936706  0.56605803
   0.43826390  0.56021086  0.68895080
   0.31418785  0.68440234  0.68218232
   0.56162945  0.55906833  0.56308503
   0.68677234  0.68642015  0.56263962
   0.68663745  0.55737238  0.69055446
   0.55903766  0.68528054  0.68898837
Direct configuration=    13
   0.31216842  0.31669220  0.31239973
   0.44046343  0.44372523  0.31394787
   0.43107470  0.31211418  0.43471552
   0.31129767  0.43885909  0.44064309
   0.57043195  0.31638081  0.30918559
   0.68579251  0.44304540  0.31788984
   0.68605263  0.30862585  0.43674068
   0.55044802  0.43407629  0.43015028
   0.31487372  0.55920759  0.31764480
   0.43471735  0.68931562  0.31156445
   0.43537772  0.56059161  0.43652091
   0.31712573  0.68183177  0.43153041
   0.56565892  0.56161714  0.31047786
   0.68376589  0.68912661  0.30956105
   0.68535187  0.55861307  0.43729801
   0.55816380  0.69502994  0.43772709
   0.30913925  0.31709505  0.56522122
   0.44137059  0.42714807  0.56189589
   0.43835890  0.30864862  0.68667232
   0.31931510  0.43895300  0.68743633
   0.56730736  0.31234423  0.55709102
   0.67961178  0.43658871  0.55954421
   0.68289065  0.31385552  0.68336713
   0.56630429  0.44341180  0.68420566
   0.31677315  0.55882773  0.57179480
   0.43519172  0.68967569  0.56550300
   0.43872185  0.56033282  0.68886321
   0.31473037  0.68533264  0.68220668
   0.56162615  0.55840152  0.56298564
   0.68692905  0.68598868  0.56251355
   0.68667932  0.55654010  0.69071970
   0.55928616  0.68500339  0.68898247
Direct configuration=    14
   0.31137747  0.31661647  0.31319361
   0.44050576  0.44453284  0.31460501
   0.43010585  0.31161226  0.43449447
   0.31128819  0.43828498  0.44035228
   0.56994993  0.31642595  0.30926506
   0.68572496  0.44365124  0.31827650
   0.68609027  0.30837921  0.43682435
   0.55000418  0.43365433  0.42989563
   0.31497359  0.55933064  0.31677620
   0.43512816  0.68852002  0.31245601
   0.43550846  0.56045714  0.43622489
   0.31727303  0.68117728  0.43101193
   0.56552992  0.56160101  0.31056315
   0.68288974  0.68958792  0.30964480
   0.68546972  0.55891046  0.43755876
   0.55795047  0.69607335  0.43813247
   0.30903366  0.31677894  0.56506867
   0.44108436  0.42684389  0.56306843
   0.43826717  0.30783595  0.68733508
   0.31896101  0.43858576  0.68710764
   0.56831679  0.31262154  0.55624476
   0.67921209  0.43730185  0.55880671
   0.68289992  0.31406724  0.68364155
   0.56694420  0.44336372  0.68406935
   0.31717715  0.55862594  0.57217199
   0.43477080  0.69005445  0.56493057
   0.43910233  0.56053756  0.68875808
   0.31520829  0.68632653  0.68220540
   0.56232634  0.55775648  0.56265497
   0.68698337  0.68561664  0.56236933
   0.68740616  0.55707433  0.69085365
   0.55953667  0.68479410  0.68843872
Direct configuration=    15
   0.31188894  0.31627326  0.31344869
   0.44047327  0.44527151  0.31525349
   0.42907041  0.31105810  0.43427397
   0.31121953  0.43765114  0.44006607
   0.57017324  0.31627484  0.30851884
   0.68558132  0.44419941  0.31868005
   0.68604976  0.30809241  0.43691260
   0.54984296  0.43406054  0.43064218
   0.31501976  0.55939230  0.31592165
   0.43548328  0.68765457  0.31336730
   0.43559940  0.56028469  0.43593957
   0.31737313  0.68045503  0.43050506
   0.56533822  0.56153968  0.31065990
   0.68192770  0.68997219  0.30975510
   0.68551633  0.55916056  0.43782563
   0.55767554  0.69647871  0.43822663
   0.30842276  0.31684644  0.56544416
   0.44072849  0.42649265  0.56424867
   0.43878111  0.30807009  0.68786533
   0.31855786  0.43816008  0.68677153
   0.56925747  0.31284191  0.55540903
   0.67875485  0.43795695  0.55807160
   0.68218715  0.31458310  0.68409282
   0.56751551  0.44324816  0.68394283
   0.31752280  0.55837111  0.57254599
   0.43429015  0.69036709  0.56435836
   0.43942212  0.56069001  0.68865380
   0.31563891  0.68724831  0.68219573
   0.56295724  0.55706990  0.56231988
   0.68695291  0.68516953  0.56222525
   0.68805569  0.55755510  0.69097628
   0.55972218  0.68451061  0.68788200
Direct configuration=    16
   0.31249626  0.31601519  0.31368806
   0.44050804  0.44606190  0.31585364
   0.42811156  0.31057423  0.43401672
   0.31123413  0.43708009  0.43974663
   0.56988276  0.31648907  0.30878997
   0.68606820  0.44336209  0.31907387
   0.68656074  0.30716485  0.43640099
   0.54978063  0.43453080  0.43136823
   0.31457520  0.55905540  0.31511297
   0.43592571  0.68684189  0.31425838
   0.43577210  0.56018738  0.43563631
   0.31756702  0.67978801  0.42997257
   0.56522627  0.56155494  0.31072964
   0.68102278  0.69040089  0.30985355
   0.68563426  0.55948592  0.43805956
   0.55748135  0.69693412  0.43828797
   0.30790712  0.31699458  0.56578341
   0.44044537  0.42621496  0.56539712
   0.43914291  0.30754548  0.68772478
   0.31824756  0.43779737  0.68638985
   0.57027111  0.31312698  0.55454518
   0.67838378  0.43867395  0.55730079
   0.68153552  0.31518226  0.68449175
   0.56737043  0.44324161  0.68438756
   0.31795191  0.55818550  0.57287867
   0.43389265  0.69073478  0.56374858
   0.43982299  0.56091181  0.68851163
   0.31616457  0.68821900  0.68213871
   0.56228287  0.55749779  0.56248752
   0.68698023  0.68476941  0.56204303
   0.68876929  0.55810361  0.69104933
   0.55998468  0.68427414  0.68727301
Direct configuration=    17
   0.31312185  0.31581357  0.31400460
   0.44051600  0.44629587  0.31528332
   0.42715380  0.31013335  0.43381661
   0.31125556  0.43654333  0.43948791
   0.56958995  0.31675679  0.30913816
   0.68654351  0.44256166  0.31953955
   0.68705974  0.30629043  0.43594697
   0.54962188  0.43425760  0.43169555
   0.31422627  0.55879264  0.31595757
   0.43574902  0.68713963  0.31383058
   0.43594855  0.56013714  0.43541100
   0.31777723  0.67914899  0.42950878
   0.56511839  0.56161777  0.31086568
   0.68009868  0.69084593  0.31003363
   0.68530034  0.55942038  0.43823474
   0.55729139  0.69741131  0.43841049
   0.30741011  0.31719440  0.56617968
   0.44015860  0.42598149  0.56660578
   0.43951254  0.30707492  0.68762747
   0.31795304  0.43746885  0.68605627
   0.57127970  0.31344899  0.55374751
   0.67802234  0.43942429  0.55658857
   0.68188381  0.31580166  0.68448932
   0.56722304  0.44326273  0.68489661
   0.31843811  0.55755020  0.57340195
   0.43350137  0.69112806  0.56319457
   0.44022772  0.56117500  0.68842526
   0.31670861  0.68920982  0.68212758
   0.56160266  0.55797874  0.56270629
   0.68698880  0.68438761  0.56191632
   0.68946999  0.55869064  0.69116615
   0.56024741  0.68405619  0.68670552
Direct configuration=    18
   0.31376689  0.31562062  0.31436471
   0.44051868  0.44650448  0.31472615
   0.42715247  0.31023226  0.43338866
   0.31128613  0.43599413  0.43925851
   0.56929696  0.31703074  0.30953172
   0.68700864  0.44175153  0.32004512
   0.68754944  0.30542176  0.43551766
   0.54948457  0.43397196  0.43206259
   0.31388944  0.55851369  0.31683873
   0.43558537  0.68741511  0.31344346
   0.43613027  0.56008588  0.43523173
   0.31800533  0.67849292  0.42908292
   0.56501721  0.56168043  0.31103638
   0.67915771  0.69126031  0.31026314
   0.68533313  0.55944159  0.43796103
   0.55710753  0.69786258  0.43856168
   0.30693435  0.31739820  0.56660101
   0.43987022  0.42574445  0.56784090
   0.43989205  0.30661139  0.68754222
   0.31767633  0.43712709  0.68573953
   0.57228431  0.31376000  0.55298568
   0.67767363  0.44016105  0.55590423
   0.68110141  0.31570055  0.68437840
   0.56707660  0.44326493  0.68543740
   0.31893257  0.55691132  0.57394324
   0.43311781  0.69149997  0.56266365
   0.44063741  0.56143250  0.68836344
   0.31727300  0.69017285  0.68213039
   0.56091869  0.55846501  0.56294396
   0.68664927  0.68439227  0.56176897
   0.69015982  0.55926837  0.69129462
   0.56051277  0.68381006  0.68614815
Direct configuration=    19
   0.31441938  0.31549200  0.31484699
   0.44050619  0.44674438  0.31426163
   0.42679216  0.31045810  0.43246586
   0.31131472  0.43548887  0.43913857
   0.56965185  0.31698001  0.30884133
   0.68745212  0.44098801  0.32067046
   0.68732414  0.30546760  0.43566614
   0.54961609  0.43289370  0.43185099
   0.31355268  0.55827340  0.31783474
   0.43542390  0.68772457  0.31317609
   0.43630585  0.56008929  0.43517825
   0.31823961  0.67787706  0.42877492
   0.56491178  0.56179846  0.31132086
   0.67818832  0.69170007  0.31062088
   0.68535051  0.55951846  0.43779362
   0.55726541  0.69736547  0.43817946
   0.30648269  0.31745709  0.56637095
   0.43956977  0.42555915  0.56917935
   0.44026995  0.30621144  0.68754838
   0.31740575  0.43682850  0.68552034
   0.57327346  0.31411559  0.55233895
   0.67732667  0.44094100  0.55532866
   0.68029485  0.31566334  0.68435577
   0.56692155  0.44330522  0.68608887
   0.31942432  0.55632644  0.57458122
   0.43273105  0.69190690  0.56223530
   0.44104019  0.56174038  0.68840653
   0.31784573  0.69116478  0.68222663
   0.56022125  0.55901139  0.56327918
   0.68628193  0.68442473  0.56172456
   0.69082637  0.55989214  0.69151400
   0.56076978  0.68359245  0.68568052
Direct configuration=    20
   0.31506537  0.31535398  0.31535987
   0.44079499  0.44676916  0.31442239
   0.42641542  0.31066304  0.43156223
   0.31132848  0.43495459  0.43903835
   0.56998291  0.31691765  0.30818481
   0.68786133  0.44019784  0.32132565
   0.68706479  0.30576428  0.43525355
   0.54974324  0.43178869  0.43166746
   0.31320302  0.55799785  0.31885482
   0.43525215  0.68799442  0.31293895
   0.43646353  0.56007265  0.43516085
   0.31846711  0.67722968  0.42849513
   0.56479010  0.56189788  0.31162930
   0.67774534  0.69197889  0.31071952
   0.68533937  0.55957767  0.43764235
   0.55740541  0.69682560  0.43781559
   0.30622229  0.31780621  0.56654985
   0.43924577  0.42535120  0.57052854
   0.44063406  0.30580153  0.68755641
   0.31712850  0.43649881  0.68530994
   0.57423303  0.31444143  0.55171877
   0.67747291  0.44148197  0.55476385
   0.67945226  0.31561660  0.68433181
   0.56674644  0.44331051  0.68676062
   0.31893988  0.55652352  0.57453689
   0.43232830  0.69227441  0.56182000
   0.44142326  0.56202534  0.68846589
   0.31841458  0.69211168  0.68232583
   0.55949905  0.55954301  0.56362110
   0.68587436  0.68441113  0.56169294
   0.69145651  0.56048803  0.69173352
   0.56100625  0.68333078  0.68521322
Direct configuration=    21
   0.31567398  0.31523227  0.31595782
   0.44102880  0.44677915  0.31464267
   0.42599608  0.31087349  0.43073751
   0.31129950  0.43441858  0.43901591
   0.57026179  0.31687015  0.30761912
   0.68820834  0.43940797  0.32206762
   0.68676917  0.30578767  0.43465099
   0.54983664  0.43068468  0.43156986
   0.31281187  0.55771255  0.31995405
   0.43504251  0.68825168  0.31278882
   0.43657609  0.56006147  0.43523744
   0.31865885  0.67657966  0.42830257
   0.56462378  0.56200495  0.31201843
   0.67723454  0.69223621  0.31091381
   0.68520549  0.56001461  0.43816984
   0.55749915  0.69627036  0.43752705
   0.30593117  0.31816789  0.56680011
   0.43880591  0.42524171  0.57109272
   0.44095621  0.30540828  0.68762358
   0.31666784  0.43636202  0.68448274
   0.57462149  0.31430309  0.55111961
   0.67758085  0.44202138  0.55427719
   0.67938103  0.31673576  0.68412557
   0.56758345  0.44325880  0.68682978
   0.31841247  0.55672931  0.57455701
   0.43188155  0.69262890  0.56147506
   0.44175711  0.56231392  0.68859889
   0.31768447  0.69231746  0.68194914
   0.55942207  0.55981417  0.56374199
   0.68637204  0.68437786  0.56233890
   0.69202151  0.56108206  0.69201043
   0.56119429  0.68305195  0.68480378
Direct configuration=    22
   0.31625270  0.31510891  0.31650075
   0.44121699  0.44675732  0.31478363
   0.42615304  0.31090174  0.43118046
   0.31123646  0.43386434  0.43893351
   0.57049762  0.31681980  0.30700505
   0.68850150  0.43860254  0.32275778
   0.68715671  0.30601060  0.43409626
   0.54990532  0.42956726  0.43141952
   0.31238819  0.55739907  0.32099335
   0.43480371  0.68847885  0.31258739
   0.43665336  0.56003741  0.43527009
   0.31882315  0.67591143  0.42805997
   0.56442182  0.56210189  0.31234997
   0.67666574  0.69245465  0.31106533
   0.68502360  0.56044317  0.43863167
   0.55739731  0.69655224  0.43763795
   0.30561809  0.31852444  0.56698322
   0.43832501  0.42511737  0.57158576
   0.44124579  0.30501420  0.68761143
   0.31618111  0.43620443  0.68358495
   0.57496003  0.31414445  0.55046912
   0.67765904  0.44254184  0.55373079
   0.67925542  0.31785383  0.68383769
   0.56838181  0.44318341  0.68683559
   0.31785211  0.55692708  0.57450357
   0.43140000  0.69295271  0.56106270
   0.44204994  0.56258849  0.68866624
   0.31693203  0.69248718  0.68149402
   0.55930169  0.56007744  0.56378851
   0.68681101  0.68430755  0.56291743
   0.69258627  0.56132539  0.69234192
   0.56134340  0.68273898  0.68431437
Direct configuration=    23
   0.31687843  0.31493553  0.31695364
   0.44143702  0.44665602  0.31481149
   0.42635655  0.31086836  0.43153349
   0.31138608  0.43428669  0.43853175
   0.57073037  0.31711732  0.30740364
   0.68881936  0.43773444  0.32336261
   0.68757536  0.30618125  0.43343952
   0.55002666  0.42839006  0.43118261
   0.31200931  0.55700809  0.32193818
   0.43461352  0.68862800  0.31230107
   0.43677420  0.55995153  0.43522573
   0.31826845  0.67564059  0.42845468
   0.56426276  0.56214006  0.31259075
   0.67611701  0.69258627  0.31114029
   0.68487141  0.56081507  0.43899373
   0.55733583  0.69675421  0.43765290
   0.30536034  0.31882702  0.56706542
   0.43788249  0.42493036  0.57197458
   0.44069273  0.30504757  0.68829097
   0.31574577  0.43597833  0.68258370
   0.57532669  0.31391750  0.54973467
   0.67778526  0.44299408  0.55309235
   0.67915421  0.31892159  0.68343424
   0.56921754  0.44303758  0.68674407
   0.31756175  0.55689317  0.57467172
   0.43096209  0.69319723  0.56054980
   0.44237911  0.56280076  0.68863382
   0.31623586  0.69257232  0.68092701
   0.55921550  0.56028422  0.56372685
   0.68726952  0.68415263  0.56339455
   0.69321758  0.56140834  0.69294842
   0.56153124  0.68234380  0.68371176
Direct configuration=    24
   0.31720816  0.31419001  0.31640624
   0.44160487  0.44651755  0.31489851
   0.42652209  0.31081532  0.43196901
   0.31223753  0.43500217  0.43766108
   0.57096136  0.31783529  0.30774398
   0.68907848  0.43684635  0.32405392
   0.68794201  0.30634067  0.43285260
   0.55011526  0.42719769  0.43103220
   0.31159104  0.55658233  0.32295999
   0.43438744  0.68874115  0.31210274
   0.43685457  0.55984583  0.43527643
   0.31767894  0.67534687  0.42893815
   0.56406277  0.56216106  0.31291300
   0.67607637  0.69219476  0.31069923
   0.68466442  0.56117162  0.43942648
   0.55723050  0.69691731  0.43774377
   0.30507389  0.31911632  0.56721802
   0.43739595  0.42472263  0.57243043
   0.44010075  0.30507459  0.68902910
   0.31527685  0.43572599  0.68165301
   0.57563716  0.31366443  0.54908933
   0.67787499  0.44341957  0.55253464
   0.67899451  0.31997971  0.68308742
   0.57000452  0.44286532  0.68672668
   0.31723316  0.55684693  0.57490428
   0.43048336  0.69340440  0.56010810
   0.44266007  0.56299226  0.68867390
   0.31551179  0.69261458  0.68042004
   0.55950083  0.56109033  0.56412354
   0.68677222  0.68374140  0.56312839
   0.69378537  0.56146658  0.69361177