   1   1   0   0
  0.2160000E+03  0.6000000E-09  0.6000000E-09  0.6000000E-09  0.1000000E-15
  1.000000000000000E-004
  CAR 
 Pt cube particle                        
      3.27593355     -5.71402721  301     -3.52054777      1.00000000
     -5.714  0.0000E+00  0.0000E+00
     -5.684  0.0000E+00  0.0000E+00
     -5.654  0.0000E+00  0.0000E+00
     -5.624  0.0000E+00  0.0000E+00
     -5.594  0.0000E+00  0.0000E+00
     -5.564  0.0000E+00  0.0000E+00
     -5.534  0.0000E+00  0.0000E+00
     -5.504  0.0000E+00  0.0000E+00
     -5.474  0.0000E+00  0.0000E+00
     -5.444  0.0000E+00  0.0000E+00
     -5.414  0.0000E+00  0.0000E+00
     -5.384  0.0000E+00  0.0000E+00
     -5.354  0.0000E+00  0.0000E+00
     -5.324 -0.1052E-27 -0.3153E-29
     -5.294 -0.1085E-26 -0.3566E-28
     -5.265 -0.1104E-25 -0.3664E-27
     -5.235 -0.1079E-24 -0.3600E-26
     -5.205 -0.1008E-23 -0.3381E-25
     -5.175 -0.8999E-23 -0.3035E-24
     -5.145 -0.7677E-22 -0.2604E-23
     -5.115 -0.6260E-21 -0.2136E-22
     -5.085 -0.4877E-20 -0.1675E-21
     -5.055 -0.3631E-19 -0.1256E-20
     -5.025 -0.2583E-18 -0.8997E-20
     -4.995 -0.1756E-17 -0.6162E-19
     -4.965 -0.1141E-16 -0.4034E-18
     -4.935 -0.7079E-16 -0.2525E-17
     -4.905 -0.4198E-15 -0.1510E-16
     -4.875 -0.2304E-14 -0.8415E-16
     -4.845 -0.1248E-13 -0.4582E-15
     -4.815 -0.6435E-13 -0.2387E-14
     -4.785 -0.3174E-12 -0.1190E-13
     -4.755 -0.1494E-11 -0.5668E-13
     -4.725 -0.6719E-11 -0.2580E-12
     -4.695 -0.2884E-10 -0.1122E-11
     -4.665 -0.1182E-09 -0.4665E-11
     -4.635 -0.4626E-09 -0.1853E-10
     -4.605 -0.1728E-08 -0.7030E-10
     -4.575 -0.6157E-08 -0.2548E-09
     -4.545 -0.2094E-07 -0.8823E-09
     -4.515 -0.6792E-07 -0.2918E-08
     -4.485 -0.2101E-06 -0.9215E-08
     -4.455 -0.6198E-06 -0.2779E-07
     -4.425 -0.1742E-05 -0.8000E-07
     -4.395 -0.4666E-05 -0.2198E-06
     -4.366 -0.1190E-04 -0.5764E-06
     -4.336 -0.2887E-04 -0.1442E-05
     -4.306 -0.6662E-04 -0.3438E-05
     -4.276 -0.1460E-03 -0.7814E-05
     -4.246 -0.3037E-03 -0.1692E-04
     -4.216 -0.5986E-03 -0.3485E-04
     -4.186 -0.1116E-02 -0.6828E-04
     -4.156 -0.1961E-02 -0.1270E-03
     -4.126 -0.3238E-02 -0.2241E-03
     -4.096 -0.4995E-02 -0.3737E-03
     -4.066 -0.7137E-02 -0.5876E-03
     -4.036 -0.9304E-02 -0.8664E-03
     -4.006 -0.1075E-01 -0.1189E-02
     -3.976 -0.1027E-01 -0.1496E-02
     -3.946 -0.6245E-02 -0.1684E-02
     -3.916  0.3121E-02 -0.1590E-02
     -3.886  0.1937E-01 -0.1010E-02
     -3.856  0.4319E-01  0.2845E-03
     -3.826  0.7388E-01  0.2498E-02
     -3.796  0.1090E+00  0.5765E-02
     -3.766  0.1445E+00  0.1010E-01
     -3.736  0.1754E+00  0.1535E-01
     -3.706  0.1968E+00  0.2125E-01
     -3.676  0.2050E+00  0.2739E-01
     -3.646  0.1989E+00  0.3335E-01
     -3.616  0.1799E+00  0.3874E-01
     -3.586  0.1519E+00  0.4329E-01
     -3.556  0.1199E+00  0.4689E-01
     -3.526  0.8939E-01  0.4957E-01
     -3.497  0.6422E-01  0.5149E-01
     -3.467  0.4655E-01  0.5289E-01
     -3.437  0.3638E-01  0.5398E-01
     -3.407  0.3209E-01  0.5494E-01
     -3.377  0.3120E-01  0.5587E-01
     -3.347  0.3122E-01  0.5681E-01
     -3.317  0.3031E-01  0.5772E-01
     -3.287  0.2758E-01  0.5854E-01
     -3.257  0.2307E-01  0.5923E-01
     -3.227  0.1743E-01  0.5976E-01
     -3.197  0.1159E-01  0.6010E-01
     -3.167  0.6378E-02  0.6030E-01
     -3.137  0.2335E-02  0.6037E-01
     -3.107 -0.3585E-03  0.6035E-01
     -3.077 -0.1817E-02  0.6030E-01
     -3.047 -0.2330E-02  0.6023E-01
     -3.017 -0.2238E-02  0.6016E-01
     -2.987 -0.1843E-02  0.6011E-01
     -2.957 -0.1363E-02  0.6007E-01
     -2.927 -0.9253E-03  0.6004E-01
     -2.897 -0.5833E-03  0.6002E-01
     -2.867 -0.3440E-03  0.6001E-01
     -2.837 -0.1907E-03  0.6001E-01
     -2.807 -0.9968E-04  0.6000E-01
     -2.777 -0.4927E-04  0.6000E-01
     -2.747 -0.2306E-04  0.6000E-01
     -2.717 -0.1024E-04  0.6000E-01
     -2.687 -0.4317E-05  0.6000E-01
     -2.657 -0.1730E-05  0.6000E-01
     -2.627 -0.6590E-06  0.6000E-01
     -2.598 -0.2390E-06  0.6000E-01
     -2.568 -0.8249E-07  0.6000E-01
     -2.538 -0.2713E-07  0.6000E-01
     -2.508 -0.8499E-08  0.6000E-01
     -2.478 -0.2538E-08  0.6000E-01
     -2.448 -0.7226E-09  0.6000E-01
     -2.418 -0.1962E-09  0.6000E-01
     -2.388 -0.5081E-10  0.6000E-01
     -2.358 -0.1255E-10  0.6000E-01
     -2.328 -0.2959E-11  0.6000E-01
     -2.298 -0.6656E-12  0.6000E-01
     -2.268 -0.1429E-12  0.6000E-01
     -2.238 -0.2927E-13  0.6000E-01
     -2.208 -0.5706E-14  0.6000E-01
     -2.178 -0.1111E-14  0.6000E-01
     -2.148 -0.1482E-15  0.6000E-01
     -2.118 -0.7410E-16  0.6000E-01
     -2.088  0.0000E+00  0.6000E-01
     -2.058  0.0000E+00  0.6000E-01
     -2.028  0.0000E+00  0.6000E-01
     -1.998  0.0000E+00  0.6000E-01
     -1.968  0.0000E+00  0.6000E-01
     -1.938  0.0000E+00  0.6000E-01
     -1.908  0.0000E+00  0.6000E-01
     -1.878  0.0000E+00  0.6000E-01
     -1.848  0.0000E+00  0.6000E-01
     -1.818  0.0000E+00  0.6000E-01
     -1.788  0.0000E+00  0.6000E-01
     -1.758  0.0000E+00  0.6000E-01
     -1.728  0.0000E+00  0.6000E-01
     -1.699  0.0000E+00  0.6000E-01
     -1.669  0.0000E+00  0.6000E-01
     -1.639  0.0000E+00  0.6000E-01
     -1.609  0.0000E+00  0.6000E-01
     -1.579  0.0000E+00  0.6000E-01
     -1.549  0.0000E+00  0.6000E-01
     -1.519  0.0000E+00  0.6000E-01
     -1.489  0.0000E+00  0.6000E-01
     -1.459  0.0000E+00  0.6000E-01
     -1.429  0.0000E+00  0.6000E-01
     -1.399  0.0000E+00  0.6000E-01
     -1.369  0.0000E+00  0.6000E-01
     -1.339  0.0000E+00  0.6000E-01
     -1.309  0.0000E+00  0.6000E-01
     -1.279  0.0000E+00  0.6000E-01
     -1.249  0.0000E+00  0.6000E-01
     -1.219  0.0000E+00  0.6000E-01
     -1.189  0.0000E+00  0.6000E-01
     -1.159  0.0000E+00  0.6000E-01
     -1.129  0.0000E+00  0.6000E-01
     -1.099  0.0000E+00  0.6000E-01
     -1.069  0.0000E+00  0.6000E-01
     -1.039  0.0000E+00  0.6000E-01
     -1.009  0.0000E+00  0.6000E-01
     -0.979  0.0000E+00  0.6000E-01
     -0.949  0.0000E+00  0.6000E-01
     -0.919  0.0000E+00  0.6000E-01
     -0.889  0.0000E+00  0.6000E-01
     -0.859  0.0000E+00  0.6000E-01
     -0.829  0.0000E+00  0.6000E-01
     -0.800  0.0000E+00  0.6000E-01
     -0.770  0.0000E+00  0.6000E-01
     -0.740  0.0000E+00  0.6000E-01
     -0.710  0.0000E+00  0.6000E-01
     -0.680  0.0000E+00  0.6000E-01
     -0.650  0.0000E+00  0.6000E-01
     -0.620  0.0000E+00  0.6000E-01
     -0.590  0.0000E+00  0.6000E-01
     -0.560  0.0000E+00  0.6000E-01
     -0.530 -0.1610E-28  0.6000E-01
     -0.500 -0.1604E-27  0.6000E-01
     -0.470 -0.1671E-26  0.6000E-01
     -0.440 -0.1665E-25  0.6000E-01
     -0.410 -0.1584E-24  0.6000E-01
     -0.380 -0.1441E-23  0.6000E-01
     -0.350 -0.1251E-22  0.6000E-01
     -0.320 -0.1039E-21  0.6000E-01
     -0.290 -0.8237E-21  0.6000E-01
     -0.260 -0.6239E-20  0.6000E-01
     -0.230 -0.4515E-19  0.6000E-01
     -0.200 -0.3121E-18  0.6000E-01
     -0.170 -0.2061E-17  0.6000E-01
     -0.140 -0.1300E-16  0.6000E-01
     -0.110 -0.7828E-16  0.6000E-01
     -0.080 -0.4318E-15  0.6000E-01
     -0.050 -0.2400E-14  0.6000E-01
     -0.020 -0.1257E-13  0.6000E-01
      0.010 -0.6279E-13  0.6000E-01
      0.040 -0.2997E-12  0.6000E-01
      0.070 -0.1365E-11  0.6000E-01
      0.099 -0.5935E-11  0.6000E-01
      0.129 -0.2462E-10  0.6000E-01
      0.159 -0.9746E-10  0.6000E-01
      0.189 -0.3680E-09  0.6000E-01
      0.219 -0.1325E-08  0.6000E-01
      0.249 -0.4551E-08  0.6000E-01
      0.279 -0.1490E-07  0.6000E-01
      0.309 -0.4649E-07  0.6000E-01
      0.339 -0.1382E-06  0.6000E-01
      0.369 -0.3913E-06  0.6000E-01
      0.399 -0.1055E-05  0.6000E-01
      0.429 -0.2707E-05  0.6000E-01
      0.459 -0.6605E-05  0.6000E-01
      0.489 -0.1532E-04  0.6000E-01
      0.519 -0.3376E-04  0.6000E-01
      0.549 -0.7058E-04  0.6000E-01
      0.579 -0.1399E-03  0.5999E-01
      0.609 -0.2624E-03  0.5998E-01
      0.639 -0.4650E-03  0.5997E-01
      0.669 -0.7769E-03  0.5995E-01
      0.699 -0.1219E-02  0.5991E-01
      0.729 -0.1789E-02  0.5986E-01
      0.759 -0.2436E-02  0.5978E-01
      0.789 -0.3040E-02  0.5969E-01
      0.819 -0.3393E-02  0.5959E-01
      0.849 -0.3201E-02  0.5949E-01
      0.879 -0.2107E-02  0.5943E-01
      0.909  0.2663E-03  0.5944E-01
      0.939  0.4268E-02  0.5957E-01
      0.969  0.1018E-01  0.5987E-01
      0.998  0.1822E-01  0.6042E-01
      1.028  0.2852E-01  0.6127E-01
      1.058  0.4112E-01  0.6251E-01
      1.088  0.5595E-01  0.6418E-01
      1.118  0.7261E-01  0.6636E-01
      1.148  0.9030E-01  0.6906E-01
      1.178  0.1076E+00  0.7229E-01
      1.208  0.1226E+00  0.7596E-01
      1.238  0.1331E+00  0.7995E-01
      1.268  0.1372E+00  0.8406E-01
      1.298  0.1336E+00  0.8807E-01
      1.328  0.1222E+00  0.9173E-01
      1.358  0.1045E+00  0.9486E-01
      1.388  0.8270E-01  0.9734E-01
      1.418  0.5972E-01  0.9913E-01
      1.448  0.3830E-01  0.1003E+00
      1.478  0.2047E-01  0.1009E+00
      1.508  0.7290E-02  0.1011E+00
      1.538 -0.1183E-02  0.1011E+00
      1.568 -0.5630E-02  0.1009E+00
      1.598 -0.7120E-02  0.1007E+00
      1.628 -0.6777E-02  0.1005E+00
      1.658 -0.5544E-02  0.1003E+00
      1.688 -0.4079E-02  0.1002E+00
      1.718 -0.2757E-02  0.1001E+00
      1.748 -0.1731E-02  0.1001E+00
      1.778 -0.1018E-02  0.1000E+00
      1.808 -0.5627E-03  0.1000E+00
      1.838 -0.2935E-03  0.1000E+00
      1.868 -0.1447E-03  0.1000E+00
      1.897 -0.6763E-04  0.1000E+00
      1.927 -0.2997E-04  0.1000E+00
      1.957 -0.1261E-04  0.1000E+00
      1.987 -0.5045E-05  0.1000E+00
      2.017 -0.1919E-05  0.1000E+00
      2.047 -0.6948E-06  0.1000E+00
      2.077 -0.2395E-06  0.1000E+00
      2.107 -0.7863E-07  0.1000E+00
      2.137 -0.2460E-07  0.1000E+00
      2.167 -0.7335E-08  0.1000E+00
      2.197 -0.2085E-08  0.1000E+00
      2.227 -0.5653E-09  0.1000E+00
      2.257 -0.1462E-09  0.1000E+00
      2.287 -0.3607E-10  0.1000E+00
      2.317 -0.8490E-11  0.1000E+00
      2.347 -0.1907E-11  0.1000E+00
      2.377 -0.4090E-12  0.1000E+00
      2.407 -0.8358E-13  0.1000E+00
      2.437 -0.1623E-13  0.1000E+00
      2.467 -0.3112E-14  0.1000E+00
      2.497 -0.4446E-15  0.1000E+00
      2.527 -0.2223E-15  0.1000E+00
      2.557  0.0000E+00  0.1000E+00
      2.587  0.0000E+00  0.1000E+00
      2.617  0.0000E+00  0.1000E+00
      2.647  0.0000E+00  0.1000E+00
      2.677  0.0000E+00  0.1000E+00
      2.707  0.0000E+00  0.1000E+00
      2.737  0.0000E+00  0.1000E+00
      2.767  0.0000E+00  0.1000E+00
      2.796  0.0000E+00  0.1000E+00
      2.826  0.0000E+00  0.1000E+00
      2.856  0.0000E+00  0.1000E+00
      2.886  0.0000E+00  0.1000E+00
      2.916  0.0000E+00  0.1000E+00
      2.946  0.0000E+00  0.1000E+00
      2.976  0.0000E+00  0.1000E+00
      3.006  0.0000E+00  0.1000E+00
      3.036  0.0000E+00  0.1000E+00
      3.066  0.0000E+00  0.1000E+00
      3.096  0.0000E+00  0.1000E+00
      3.126  0.0000E+00  0.1000E+00
      3.156  0.0000E+00  0.1000E+00
      3.186  0.0000E+00  0.1000E+00
      3.216  0.0000E+00  0.1000E+00
      3.246  0.0000E+00  0.1000E+00
      3.276  0.0000E+00  0.1000E+00
