    1    1  200    1
  0.2160000E+03  0.6000000E-09  0.6000000E-09  0.6000000E-09  0.1000000E-15
  1.000000000000000E-004
  CAR 
 Pt cube particle                        
     10      1     10
 
  0.0000000E+00  0.0000000E+00  0.0000000E+00  0.1000000E+01
    1       -3.714027   1.021405
    2       -3.714023   1.021402
    3       -3.672520   0.979054
    4       -3.672511   0.979040
    5       -3.672506   0.979033
    6       -3.367970   0.020066
    7        1.095367   0.000000
    8        1.275932   0.000000
    9        1.275933   0.000000
   10        1.275934   0.000000
