 vasp.5.4.1 24Jun15 (build Jan 06 2016 13:19:48) gamma-only                     
  
 executed on           IFC91_ompi date 2016.02.18  15:28:37
 running on    8 total cores
 distrk:  each k-point on    8 cores,    1 groups
 distr:  one band on NCORES_PER_BAND=   4 cores,    2 groups


--------------------------------------------------------------------------------------------------------


 INCAR:
 POTCAR:    PAW Pd                                
 POTCAR:    PAW Pd                                
   VRHFIN =Pd : s1 d9                                                           
   LEXCH  = 91                                                                  
   EATOM  =   810.7745 eV,   59.5902 Ry                                         
                                                                                
   TITEL  = PAW Pd                                                              
   LULTRA =        F    use ultrasoft PP ?                                      
   IUNSCR =        1    unscreen: 0-lin 1-nonlin 2-no                           
   RPACOR =    2.000    partial core radius                                     
   POMASS =  106.420; ZVAL   =   10.000    mass and valenz                      
   RCORE  =    2.400    outmost cutoff radius                                   
   RWIGS  =    2.710; RWIGS  =    1.434    wigner-seitz radius (au A)           
   ENMAX  =  250.918; ENMIN  =  188.188 eV                                      
   RCLOC  =    1.862    cutoff for local pot                                    
   LCOR   =        T    correct aug charges                                     
   LPAW   =        T    paw PP                                                  
   EAUG   =  416.230                                                            
   DEXC   =    -.044                                                            
   RMAX   =    2.911    core radius for proj-oper                               
   RAUG   =    1.300    factor for augmentation sphere                          
   RDEP   =    2.405    core radius for depl-charge                             
   QCUT   =   -4.294; QGAM   =    8.589    optimization parameters              
                                                                                
   Description                                                                  
     l     E      TYP  RCUT    TYP  RCUT                                        
     2   .000     23  2.400                                                     
     2   .000     23  2.400                                                     
     0   .000     23  2.400                                                     
     0   .000     23  2.400                                                     
     1  -.200     23  2.400                                                     
     1   .000     23  2.400                                                     
     3   .000      7   .000                                                     
  local pseudopotential read in
  partial core-charges read in
  atomic valenz-charges read in
  non local Contribution for L=           2  read in
    real space projection operators read in
  non local Contribution for L=           2  read in
    real space projection operators read in
  non local Contribution for L=           0  read in
    real space projection operators read in
  non local Contribution for L=           0  read in
    real space projection operators read in
  non local Contribution for L=           1  read in
    real space projection operators read in
  non local Contribution for L=           1  read in
    real space projection operators read in
    PAW grid and wavefunctions read in
 
   number of l-projection  operators is LMAX  =           6
   number of lm-projection operators is LMMAX =          18
 

 ----------------------------------------------------------------------------- 
|                                                                             |
|  ADVICE TO THIS USER RUNNING 'VASP/VAMP'   (HEAR YOUR MASTER'S VOICE ...):  |
|                                                                             |
|      You have a (more or less) 'small supercell' and for smaller cells      |
|      it is recommended  to use the reciprocal-space projection scheme!      |
|      The real space optimization is not  efficient for small cells and it   |
|      is also less accurate ...                                              |
|      Therefore set LREAL=.FALSE. in the  INCAR file                         |
|                                                                             |
 ----------------------------------------------------------------------------- 

 Optimization of the real space projectors (new method)

 maximal supplied QI-value         = 15.68
 optimisation between [QCUT,QGAM] = [  8.47, 16.94] = [ 20.09, 80.35] Ry 
 Optimized for a Real-space Cutoff    1.57 Angstroem

   l    n(q)    QCUT    max X(q) W(low)/X(q) W(high)/X(q)  e(spline) 
   2      7     8.470     3.678    0.37E-04    0.99E-04    0.37E-07
   2      7     8.470    27.581    0.48E-03    0.11E-02    0.28E-06
   0      8     8.470    18.529    0.16E-04    0.51E-05    0.58E-08
   0      8     8.470    72.518    0.26E-03    0.26E-03    0.54E-07
   1      7     8.470     7.283    0.30E-04    0.76E-04    0.24E-07
   1      7     8.470     9.762    0.13E-03    0.27E-03    0.59E-07
  PAW Pd                                :
 energy of atom  1       EATOM= -810.7745
 kinetic energy error for atom=    0.0521 (will be added to EATOM!!)
 
 
 POSCAR: Pt                                      
  positions in direct lattice
  No initial velocities read in
 exchange correlation table for  LEXCH =        7
   RHO(1)=    0.500       N(1)  =     2000
   RHO(2)=  100.500       N(2)  =     4000

 VTST: version 3.1, (03/28/14)

 CHAIN: initializing optimizer
 
 OPT: Using VASP Conjugate-Gradient optimizer
 CHAIN: Read ICHAIN            0
 
 POSCAR: Pt                                      
  positions in direct lattice
  No initial velocities read in
 


--------------------------------------------------------------------------------------------------------


 ion  position               nearest neighbor table
   1  0.500  0.500  0.500-
 

IMPORTANT INFORMATION: All symmetrisations will be switched off!
NOSYMM: (Re-)initialisation of all symmetry stuff for point group C_1.

 
 
 KPOINTS: Automatic Mesh                          

Automatic generation of k-mesh.
Space group operators:
 irot       det(A)        alpha          n_x          n_y          n_z        tau_x        tau_y        tau_z
    1     1.000000     0.000000     1.000000     0.000000     0.000000     0.000000     0.000000     0.000000
 
 Subroutine IBZKPT returns following result:
 ===========================================
 
 Found      1 irreducible k-points:
 
 Following reciprocal coordinates:
            Coordinates               Weight
  0.000000  0.000000  0.000000      1.000000
 
 Following cartesian coordinates:
            Coordinates               Weight
  0.000000  0.000000  0.000000      1.000000
 


--------------------------------------------------------------------------------------------------------




 Dimension of arrays:
   k-points           NKPTS =      1   k-points in BZ     NKDIM =      1   number of bands    NBANDS=     10
   number of dos      NEDOS =    301   number of ions     NIONS =      1
   non local maximal  LDIM  =      6   non local SUM 2l+1 LMDIM =     18
   total plane-waves  NPLWV =  13824
   max r-space proj   IRMAX =   1091   max aug-charges    IRDMAX=   3304
   dimension x,y,z NGX =    24 NGY =   24 NGZ =   24
   dimension x,y,z NGXF=    48 NGYF=   48 NGZF=   48
   support grid    NGXF=    48 NGYF=   48 NGZF=   48
   ions per type =               1
 NGX,Y,Z   is equivalent  to a cutoff of   6.65,  6.65,  6.65 a.u.
 NGXF,Y,Z  is equivalent  to a cutoff of  13.30, 13.30, 13.30 a.u.


 I would recommend the setting:
   dimension x,y,z NGX =    24 NGY =   24 NGZ =   24
 SYSTEM =  Pt cube particle                        
 POSCAR =  Pt                                      

 Startparameter for this run:
   NWRITE =      2    write-flag & timer
   PREC   = normal    normal or accurate (medium, high low for compatibility)
   ISTART =      0    job   : 0-new  1-cont  2-samecut
   ICHARG =      2    charge: 1-file 2-atom 10-const
   ISPIN  =      1    spin polarized calculation?
   LNONCOLLINEAR =      F non collinear calculations
   LSORBIT =      F    spin-orbit coupling
   INIWAV =      1    electr: 0-lowe 1-rand  2-diag
   LASPH  =      F    aspherical Exc in radial PAW
   METAGGA=      F    non-selfconsistent MetaGGA calc.

 Electronic Relaxation 1
   ENCUT  =  274.0 eV  20.14 Ry    4.49 a.u.   8.10  8.10  8.10*2*pi/ulx,y,z
   ENINI  =  274.0     initial cutoff
   ENAUG  =  416.2 eV  augmentation charge cutoff
   NELM   =     60;   NELMIN=  2; NELMDL=  0     # of ELM steps 
   EDIFF  = 0.1E-03   stopping-criterion for ELM
   LREAL  =      T    real-space projection
   NLSPLINE    = F    spline interpolate recip. space projectors
   LCOMPAT=      F    compatible to vasp.4.4
   GGA_COMPAT  = T    GGA compatible to vasp.4.4-vasp.4.6
   LMAXPAW     = -100 max onsite density
   LMAXMIX     =    2 max onsite mixed and CHGCAR
   VOSKOWN=      0    Vosko Wilk Nusair interpolation
   ROPT   =   -0.00050
 Ionic relaxation
   EDIFFG = -.5E-02   stopping-criterion for IOM
   NSW    =    200    number of steps for IOM
   NBLOCK =      1;   KBLOCK =    200    inner block; outer block 
   IBRION =      2    ionic relax: 0-MD 1-quasi-New 2-CG
   NFREE  =      1    steps in history (QN), initial steepest desc. (CG)
   ISIF   =      0    stress and relaxation
   IWAVPR =     11    prediction:  0-non 1-charg 2-wave 3-comb
   ISYM   =      0    0-nonsym 1-usesym 2-fastsym
   LCORR  =      T    Harris-Foulkes like correction to forces

   POTIM  = 0.1000    time-step for ionic-motion
   TEIN   =    0.0    initial temperature
   TEBEG  =    0.0;   TEEND  =   0.0 temperature during run
   SMASS  =  -3.00    Nose mass-parameter (am)
   estimated Nose-frequenzy (Omega)   =  0.10E-29 period in steps =****** mass=  -0.823E-27a.u.
   SCALEE = 1.0000    scale energy and forces
   NPACO  =    256;   APACO  = 16.0  distance and # of slots for P.C.
   PSTRESS=    0.0 pullay stress

  Mass of Ions in am
   POMASS = 106.42
  Ionic Valenz
   ZVAL   =  10.00
  Atomic Wigner-Seitz radii
   RWIGS  =  -1.00
  virtual crystal weights 
   VCA    =   1.00
   NELECT =      10.0000    total number of electrons
   NUPDOWN=      -1.0000    fix difference up-down

 DOS related values:
   EMIN   =  10.00;   EMAX   =-10.00  energy-range for DOS
   EFERMI =   0.00
   ISMEAR =     1;   SIGMA  =   0.20  broadening in eV -4-tet -1-fermi 0-gaus

 Electronic relaxation 2 (details)
   IALGO  =     48    algorithm
   LDIAG  =      T    sub-space diagonalisation (order eigenvalues)
   LSUBROT=      F    optimize rotation matrix (better conditioning)
   TURBO    =      0    0=normal 1=particle mesh
   IRESTART =      0    0=no restart 2=restart with 2 vectors
   NREBOOT  =      0    no. of reboots
   NMIN     =      0    reboot dimension
   EREF     =   0.00    reference energy to select bands
   IMIX   =      4    mixing-type and parameters
     AMIX     =   0.40;   BMIX     =  1.00
     AMIX_MAG =   1.60;   BMIX_MAG =  1.00
     AMIN     =   0.10
     WC   =   100.;   INIMIX=   1;  MIXPRE=   1;  MAXMIX= -45

 Intra band minimization:
   WEIMIN = 0.0010     energy-eigenvalue tresh-hold
   EBREAK =  0.25E-05  absolut break condition
   DEPER  =   0.30     relativ break condition  

   TIME   =   0.40     timestep for ELM

  volume/ion in A,a.u.               =     216.00      1457.64
  Fermi-wavevector in a.u.,A,eV,Ry     =   0.587837  1.110851  4.701525  0.345552
  Thomas-Fermi vector in A             =   1.634867
 
 Write flags
   LWAVE  =      F    write WAVECAR
   LCHARG =      F    write CHGCAR
   LVTOT  =      F    write LOCPOT, total local potential
   LVHAR  =      F    write LOCPOT, Hartree potential only
   LELF   =      F    write electronic localiz. function (ELF)
   LORBIT =      0    0 simple, 1 ext, 2 COOP (PROOUT)


 Dipole corrections
   LMONO  =      F    monopole corrections only (constant potential shift)
   LDIPOL =      F    correct potential (dipole corrections)
   IDIPOL =      0    1-x, 2-y, 3-z, 4-all directions 
   EPSILON=  1.0000000 bulk dielectric constant

 Exchange correlation treatment:
   GGA     =    --    GGA type
   LEXCH   =     7    internal setting for exchange type
   VOSKOWN=      0    Vosko Wilk Nusair interpolation
   LHFCALC =     F    Hartree Fock is set to
   LHFONE  =     F    Hartree Fock one center treatment
   AEXX    =    0.0000 exact exchange contribution

 Linear response parameters
   LEPSILON=     F    determine dielectric tensor
   LRPA    =     F    only Hartree local field effects (RPA)
   LNABLA  =     F    use nabla operator in PAW spheres
   LVEL    =     F    velocity operator in full k-point grid
   LINTERFAST=   F  fast interpolation
   KINTER  =     0    interpolate to denser k-point grid
   CSHIFT  =0.1000    complex shift for real part using Kramers Kronig
   OMEGAMAX=  -1.0    maximum frequency
   DEG_THRESHOLD= 0.2000000E-02 threshold for treating states as degnerate
   RTIME   =    0.100 relaxation time in fs

 Orbital magnetization related:
   ORBITALMAG=     F  switch on orbital magnetization
   LCHIMAG   =     F  perturbation theory with respect to B field
   DQ        =  0.001000  dq finite difference perturbation B field



--------------------------------------------------------------------------------------------------------


 conjugate gradient relaxation of ions
   using selective dynamics as specified on POSCAR
 charge density and potential will be updated during run
 non-spin polarized calculation
 RMM-DIIS sequential band-by-band
 perform sub-space diagonalisation
    before iterative eigenvector-optimisation
 modified Broyden-mixing scheme, WC =      100.0
 initial mixing is a Kerker type mixing with AMIX =  0.4000 and BMIX =      1.0000
 Hartree-type preconditioning will be used
 using additional bands            5
 real space projection scheme for non local part
 use partial core corrections
 calculate Harris-corrections to forces 
   (improved forces if not selfconsistent)
 use gradient corrections 
 use of overlap-Matrix (Vanderbilt PP)
 Methfessel and Paxton  Order N= 1 SIGMA  =   0.20


--------------------------------------------------------------------------------------------------------


  energy-cutoff  :      274.00
  volume of cell :      216.00
      direct lattice vectors                 reciprocal lattice vectors
     6.000000000  0.000000000  0.000000000     0.166666667  0.000000000  0.000000000
     0.000000000  6.000000000  0.000000000     0.000000000  0.166666667  0.000000000
     0.000000000  0.000000000  6.000000000     0.000000000  0.000000000  0.166666667

  length of vectors
     6.000000000  6.000000000  6.000000000     0.166666667  0.166666667  0.166666667


 
 k-points in units of 2pi/SCALE and weight: Automatic Mesh                          
   0.00000000  0.00000000  0.00000000       1.000
 
 k-points in reciprocal lattice and weights: Automatic Mesh                          
   0.00000000  0.00000000  0.00000000       1.000
 
 position of ions in fractional coordinates (direct lattice) 
   0.50000000  0.50000000  0.50000000
 
 position of ions in cartesian coordinates  (Angst):
   3.00000000  3.00000000  3.00000000
 


--------------------------------------------------------------------------------------------------------


 use parallel FFT for wavefunctions z direction half grid
 k-point  1 :   0.0000 0.0000 0.0000  plane waves:    1103

 maximum and minimum number of plane-waves per node :       281      270

 maximum number of plane-waves:      1103
 maximum index in each direction: 
   IXMAX=    8   IYMAX=    8   IZMAX=    8
   IXMIN=   -8   IYMIN=   -8   IZMIN=    0

 WARNING: aliasing errors must be expected set NGX to  34 to avoid them
 WARNING: aliasing errors must be expected set NGY to  34 to avoid them
 WARNING: aliasing errors must be expected set NGZ to  34 to avoid them
 aliasing errors are usually negligible using standard VASP settings
 and one can safely disregard these warnings

 real space projection operators:
  total allocation   :        143.58 KBytes
  max/ min on nodes  :         36.98         33.19


 parallel 3D FFT for wavefunctions:
    minimum data exchange during FFTs selected (reduces bandwidth)
 parallel 3D FFT for charge:
    minimum data exchange during FFTs selected (reduces bandwidth)


 total amount of memory used by VASP on root node    31450. kBytes
========================================================================

   base      :      30000. kBytes
   nonlr-proj:         44. kBytes
   fftplans  :        554. kBytes
   grid      :        822. kBytes
   one-center:          7. kBytes
   wavefun   :         23. kBytes
 
     INWAV:  cpu time    0.0000: real time    0.0000
 Broyden mixing: mesh for mixing (old mesh)
   NGX = 17   NGY = 17   NGZ = 17
  (NGX  = 48   NGY  = 48   NGZ  = 48)
  gives a total of   4913 points

 initial charge density was supplied:
 charge density of overlapping atoms calculated
 number of electron      10.0000000 magnetization 
 keeping initial charge density in first step


--------------------------------------------------------------------------------------------------------


 Maximum index for non-local projection operator          259
 Maximum index for augmentation-charges          347 (set IRDMAX)


--------------------------------------------------------------------------------------------------------


 First call to EWALD:  gamma=   0.295
 Maximum number of real-space cells 3x 3x 3
 Maximum number of reciprocal cells 3x 3x 3

 FEWALD executed in parallel
    FEWALD:  cpu time    0.0020: real time    0.0022


----------------------------------------- Iteration    1(   1)  ---------------------------------------


    POTLOK:  cpu time    0.0260: real time    0.0259
    SETDIJ:  cpu time    0.0030: real time    0.0029
    EDDIAG:  cpu time    0.0030: real time    0.0031
  RMM-DIIS:  cpu time    0.0030: real time    0.0031
    ORTHCH:  cpu time    0.0000: real time    0.0002
       DOS:  cpu time    0.0000: real time    0.0002
    --------------------------------------------
      LOOP:  cpu time    0.0370: real time    0.0396

 eigenvalue-minimisations  :    10
 total energy-change (2. order) : 0.8262686E+02  (-0.1139896E+03)
 number of electron      10.0000000 magnetization 
 augmentation part       10.0000000 magnetization 

 Free energy of the ion-electron system (eV)
  ---------------------------------------------------
  alpha Z        PSCENC =         6.28696389
  Ewald energy   TEWEN  =      -340.47066676
  -Hartree energ DENC   =      -449.99561473
  -exchange      EXHF   =         0.00000000
  -V(xc)+E(xc)   XCENC  =       -31.92868499
  PAW double counting   =       677.48627982     -615.11396887
  entropy T*S    EENTRO =         0.01807821
  eigenvalues    EBANDS =        25.62207365
  atomic energy  EATOM  =       810.72239932
  Solvation  Ediel_sol  =         0.00000000
  ---------------------------------------------------
  free energy    TOTEN  =        82.62685954 eV

  energy without entropy =       82.60878133  energy(sigma->0) =       82.62083347


--------------------------------------------------------------------------------------------------------




----------------------------------------- Iteration    1(   2)  ---------------------------------------


    EDDIAG:  cpu time    0.0020: real time    0.0019
  RMM-DIIS:  cpu time    0.0020: real time    0.0025
    ORTHCH:  cpu time    0.0000: real time    0.0002
       DOS:  cpu time    0.0010: real time    0.0002
    --------------------------------------------
      LOOP:  cpu time    0.0060: real time    0.0063

 eigenvalue-minimisations  :    10
 total energy-change (2. order) :-0.2992309E+02  (-0.2407587E+02)
 number of electron      10.0000000 magnetization 
 augmentation part       10.0000000 magnetization 

 Free energy of the ion-electron system (eV)
  ---------------------------------------------------
  alpha Z        PSCENC =         6.28696389
  Ewald energy   TEWEN  =      -340.47066676
  -Hartree energ DENC   =      -449.99561473
  -exchange      EXHF   =         0.00000000
  -V(xc)+E(xc)   XCENC  =       -31.92868499
  PAW double counting   =       677.48627982     -615.11396887
  entropy T*S    EENTRO =         0.01159610
  eigenvalues    EBANDS =        -4.29453863
  atomic energy  EATOM  =       810.72239932
  Solvation  Ediel_sol  =         0.00000000
  ---------------------------------------------------
  free energy    TOTEN  =        52.70376515 eV

  energy without entropy =       52.69216905  energy(sigma->0) =       52.69989979


--------------------------------------------------------------------------------------------------------




----------------------------------------- Iteration    1(   3)  ---------------------------------------


    EDDIAG:  cpu time    0.0020: real time    0.0018
  RMM-DIIS:  cpu time    0.0020: real time    0.0024
    ORTHCH:  cpu time    0.0000: real time    0.0002
       DOS:  cpu time    0.0010: real time    0.0002
    --------------------------------------------
      LOOP:  cpu time    0.0050: real time    0.0060

 eigenvalue-minimisations  :    10
 total energy-change (2. order) :-0.3001551E+02  (-0.2332865E+02)
 number of electron      10.0000000 magnetization 
 augmentation part       10.0000000 magnetization 

 Free energy of the ion-electron system (eV)
  ---------------------------------------------------
  alpha Z        PSCENC =         6.28696389
  Ewald energy   TEWEN  =      -340.47066676
  -Hartree energ DENC   =      -449.99561473
  -exchange      EXHF   =         0.00000000
  -V(xc)+E(xc)   XCENC  =       -31.92868499
  PAW double counting   =       677.48627982     -615.11396887
  entropy T*S    EENTRO =         0.03218922
  eigenvalues    EBANDS =       -34.33064338
  atomic energy  EATOM  =       810.72239932
  Solvation  Ediel_sol  =         0.00000000
  ---------------------------------------------------
  free energy    TOTEN  =        22.68825353 eV

  energy without entropy =       22.65606430  energy(sigma->0) =       22.67752378


--------------------------------------------------------------------------------------------------------




----------------------------------------- Iteration    1(   4)  ---------------------------------------


    EDDIAG:  cpu time    0.0020: real time    0.0018
  RMM-DIIS:  cpu time    0.0020: real time    0.0024
    ORTHCH:  cpu time    0.0000: real time    0.0002
       DOS:  cpu time    0.0000: real time    0.0002
    --------------------------------------------
      LOOP:  cpu time    0.0040: real time    0.0059

 eigenvalue-minimisations  :    10
 total energy-change (2. order) :-0.1547665E+02  (-0.1135598E+02)
 number of electron      10.0000000 magnetization 
 augmentation part       10.0000000 magnetization 

 Free energy of the ion-electron system (eV)
  ---------------------------------------------------
  alpha Z        PSCENC =         6.28696389
  Ewald energy   TEWEN  =      -340.47066676
  -Hartree energ DENC   =      -449.99561473
  -exchange      EXHF   =         0.00000000
  -V(xc)+E(xc)   XCENC  =       -31.92868499
  PAW double counting   =       677.48627982     -615.11396887
  entropy T*S    EENTRO =         0.01736325
  eigenvalues    EBANDS =       -49.79246923
  atomic energy  EATOM  =       810.72239932
  Solvation  Ediel_sol  =         0.00000000
  ---------------------------------------------------
  free energy    TOTEN  =         7.21160171 eV

  energy without entropy =        7.19423846  energy(sigma->0) =        7.20581396


--------------------------------------------------------------------------------------------------------




----------------------------------------- Iteration    1(   5)  ---------------------------------------


    EDDIAG:  cpu time    0.0020: real time    0.0017
  RMM-DIIS:  cpu time    0.0020: real time    0.0024
    ORTHCH:  cpu time    0.0000: real time    0.0002
       DOS:  cpu time    0.0000: real time    0.0001
    --------------------------------------------
      LOOP:  cpu time    0.0050: real time    0.0059

 eigenvalue-minimisations  :    10
 total energy-change (2. order) :-0.5158280E+01  (-0.2860487E+01)
 number of electron      10.0000000 magnetization 
 augmentation part       10.0000000 magnetization 

 Free energy of the ion-electron system (eV)
  ---------------------------------------------------
  alpha Z        PSCENC =         6.28696389
  Ewald energy   TEWEN  =      -340.47066676
  -Hartree energ DENC   =      -449.99561473
  -exchange      EXHF   =         0.00000000
  -V(xc)+E(xc)   XCENC  =       -31.92868499
  PAW double counting   =       677.48627982     -615.11396887
  entropy T*S    EENTRO =         0.03098253
  eigenvalues    EBANDS =       -54.96436841
  atomic energy  EATOM  =       810.72239932
  Solvation  Ediel_sol  =         0.00000000
  ---------------------------------------------------
  free energy    TOTEN  =         2.05332181 eV

  energy without entropy =        2.02233927  energy(sigma->0) =        2.04299430


--------------------------------------------------------------------------------------------------------




----------------------------------------- Iteration    1(   6)  ---------------------------------------


    EDDIAG:  cpu time    0.0010: real time    0.0018
  RMM-DIIS:  cpu time    0.0030: real time    0.0024
    ORTHCH:  cpu time    0.0000: real time    0.0002
       DOS:  cpu time    0.0000: real time    0.0001
    --------------------------------------------
      LOOP:  cpu time    0.0050: real time    0.0058

 eigenvalue-minimisations  :    10
 total energy-change (2. order) :-0.2967836E+01  (-0.2869841E+00)
 number of electron      10.0000000 magnetization 
 augmentation part       10.0000000 magnetization 

 Free energy of the ion-electron system (eV)
  ---------------------------------------------------
  alpha Z        PSCENC =         6.28696389
  Ewald energy   TEWEN  =      -340.47066676
  -Hartree energ DENC   =      -449.99561473
  -exchange      EXHF   =         0.00000000
  -V(xc)+E(xc)   XCENC  =       -31.92868499
  PAW double counting   =       677.48627982     -615.11396887
  entropy T*S    EENTRO =         0.01159604
  eigenvalues    EBANDS =       -57.91281816
  atomic energy  EATOM  =       810.72239932
  Solvation  Ediel_sol  =         0.00000000
  ---------------------------------------------------
  free energy    TOTEN  =        -0.91451444 eV

  energy without entropy =       -0.92611048  energy(sigma->0) =       -0.91837979


--------------------------------------------------------------------------------------------------------




----------------------------------------- Iteration    1(   7)  ---------------------------------------


    EDDIAG:  cpu time    0.0010: real time    0.0018
  RMM-DIIS:  cpu time    0.0030: real time    0.0024
    ORTHCH:  cpu time    0.0000: real time    0.0002
       DOS:  cpu time    0.0000: real time    0.0002
    --------------------------------------------
      LOOP:  cpu time    0.0050: real time    0.0059

 eigenvalue-minimisations  :    10
 total energy-change (2. order) :-0.1101899E+01  (-0.7368074E-01)
 number of electron      10.0000000 magnetization 
 augmentation part       10.0000000 magnetization 

 Free energy of the ion-electron system (eV)
  ---------------------------------------------------
  alpha Z        PSCENC =         6.28696389
  Ewald energy   TEWEN  =      -340.47066676
  -Hartree energ DENC   =      -449.99561473
  -exchange      EXHF   =         0.00000000
  -V(xc)+E(xc)   XCENC  =       -31.92868499
  PAW double counting   =       677.48627982     -615.11396887
  entropy T*S    EENTRO =         0.07513969
  eigenvalues    EBANDS =       -59.07826124
  atomic energy  EATOM  =       810.72239932
  Solvation  Ediel_sol  =         0.00000000
  ---------------------------------------------------
  free energy    TOTEN  =        -2.01641387 eV

  energy without entropy =       -2.09155356  energy(sigma->0) =       -2.04146043


--------------------------------------------------------------------------------------------------------




----------------------------------------- Iteration    1(   8)  ---------------------------------------


    EDDIAG:  cpu time    0.0010: real time    0.0018
  RMM-DIIS:  cpu time    0.0030: real time    0.0024
    ORTHCH:  cpu time    0.0000: real time    0.0002
       DOS:  cpu time    0.0000: real time    0.0002
    --------------------------------------------
      LOOP:  cpu time    0.0050: real time    0.0059

 eigenvalue-minimisations  :    10
 total energy-change (2. order) :-0.2346781E+00  (-0.2024317E+00)
 number of electron      10.0000000 magnetization 
 augmentation part       10.0000000 magnetization 

 Free energy of the ion-electron system (eV)
  ---------------------------------------------------
  alpha Z        PSCENC =         6.28696389
  Ewald energy   TEWEN  =      -340.47066676
  -Hartree energ DENC   =      -449.99561473
  -exchange      EXHF   =         0.00000000
  -V(xc)+E(xc)   XCENC  =       -31.92868499
  PAW double counting   =       677.48627982     -615.11396887
  entropy T*S    EENTRO =         0.06042939
  eigenvalues    EBANDS =       -59.29822902
  atomic energy  EATOM  =       810.72239932
  Solvation  Ediel_sol  =         0.00000000
  ---------------------------------------------------
  free energy    TOTEN  =        -2.25109195 eV

  energy without entropy =       -2.31152134  energy(sigma->0) =       -2.27123508


--------------------------------------------------------------------------------------------------------




----------------------------------------- Iteration    1(   9)  ---------------------------------------


    EDDIAG:  cpu time    0.0010: real time    0.0018
  RMM-DIIS:  cpu time    0.0100: real time    0.0096
    ORTHCH:  cpu time    0.0000: real time    0.0002
       DOS:  cpu time    0.0000: real time    0.0002
    --------------------------------------------
      LOOP:  cpu time    0.0120: real time    0.0133

 eigenvalue-minimisations  :    21
 total energy-change (2. order) :-0.8346016E-01  (-0.7677862E-01)
 number of electron      10.0000000 magnetization 
 augmentation part       10.0000000 magnetization 

 Free energy of the ion-electron system (eV)
  ---------------------------------------------------
  alpha Z        PSCENC =         6.28696389
  Ewald energy   TEWEN  =      -340.47066676
  -Hartree energ DENC   =      -449.99561473
  -exchange      EXHF   =         0.00000000
  -V(xc)+E(xc)   XCENC  =       -31.92868499
  PAW double counting   =       677.48627982     -615.11396887
  entropy T*S    EENTRO =         0.05838878
  eigenvalues    EBANDS =       -59.37964857
  atomic energy  EATOM  =       810.72239932
  Solvation  Ediel_sol  =         0.00000000
  ---------------------------------------------------
  free energy    TOTEN  =        -2.33455210 eV

  energy without entropy =       -2.39294088  energy(sigma->0) =       -2.35401503


--------------------------------------------------------------------------------------------------------




----------------------------------------- Iteration    1(  10)  ---------------------------------------


    EDDIAG:  cpu time    0.0020: real time    0.0021
  RMM-DIIS:  cpu time    0.0050: real time    0.0048
    ORTHCH:  cpu time    0.0000: real time    0.0002
       DOS:  cpu time    0.0000: real time    0.0002
    --------------------------------------------
      LOOP:  cpu time    0.0080: real time    0.0088

 eigenvalue-minimisations  :    21
 total energy-change (2. order) :-0.1127932E-02  (-0.1009607E-02)
 number of electron      10.0000000 magnetization 
 augmentation part       10.0000000 magnetization 

 Free energy of the ion-electron system (eV)
  ---------------------------------------------------
  alpha Z        PSCENC =         6.28696389
  Ewald energy   TEWEN  =      -340.47066676
  -Hartree energ DENC   =      -449.99561473
  -exchange      EXHF   =         0.00000000
  -V(xc)+E(xc)   XCENC  =       -31.92868499
  PAW double counting   =       677.48627982     -615.11396887
  entropy T*S    EENTRO =         0.05842096
  eigenvalues    EBANDS =       -59.38080868
  atomic energy  EATOM  =       810.72239932
  Solvation  Ediel_sol  =         0.00000000
  ---------------------------------------------------
  free energy    TOTEN  =        -2.33568003 eV

  energy without entropy =       -2.39410100  energy(sigma->0) =       -2.35515369


--------------------------------------------------------------------------------------------------------




----------------------------------------- Iteration    1(  11)  ---------------------------------------


    EDDIAG:  cpu time    0.0010: real time    0.0018
  RMM-DIIS:  cpu time    0.0040: real time    0.0033
    ORTHCH:  cpu time    0.0000: real time    0.0002
       DOS:  cpu time    0.0000: real time    0.0002
    --------------------------------------------
      LOOP:  cpu time    0.0060: real time    0.0070

 eigenvalue-minimisations  :    14
 total energy-change (2. order) :-0.2664867E-04  (-0.2593925E-04)
 number of electron      10.0000000 magnetization 
 augmentation part       10.0000000 magnetization 

 Free energy of the ion-electron system (eV)
  ---------------------------------------------------
  alpha Z        PSCENC =         6.28696389
  Ewald energy   TEWEN  =      -340.47066676
  -Hartree energ DENC   =      -449.99561473
  -exchange      EXHF   =         0.00000000
  -V(xc)+E(xc)   XCENC  =       -31.92868499
  PAW double counting   =       677.48627982     -615.11396887
  entropy T*S    EENTRO =         0.05842111
  eigenvalues    EBANDS =       -59.38083548
  atomic energy  EATOM  =       810.72239932
  Solvation  Ediel_sol  =         0.00000000
  ---------------------------------------------------
  free energy    TOTEN  =        -2.33570668 eV

  energy without entropy =       -2.39412779  energy(sigma->0) =       -2.35518039


--------------------------------------------------------------------------------------------------------




----------------------------------------- Iteration    1(  12)  ---------------------------------------


    EDDIAG:  cpu time    0.0010: real time    0.0018
  RMM-DIIS:  cpu time    0.0030: real time    0.0026
    ORTHCH:  cpu time    0.0000: real time    0.0002
       DOS:  cpu time    0.0000: real time    0.0002
    CHARGE:  cpu time    0.0040: real time    0.0033
    MIXING:  cpu time    0.0010: real time    0.0007
    --------------------------------------------
      LOOP:  cpu time    0.0100: real time    0.0102

 eigenvalue-minimisations  :    10
 total energy-change (2. order) :-0.2347000E-05  (-0.2346130E-05)
 number of electron       9.9999881 magnetization 
 augmentation part        4.8422837 magnetization 

 Broyden mixing:
  rms(total) = 0.46774E+00    rms(broyden)= 0.46769E+00
  rms(prec ) = 0.95342E+00
  weight for this iteration     100.00

 Free energy of the ion-electron system (eV)
  ---------------------------------------------------
  alpha Z        PSCENC =         6.28696389
  Ewald energy   TEWEN  =      -340.47066676
  -Hartree energ DENC   =      -449.99561473
  -exchange      EXHF   =         0.00000000
  -V(xc)+E(xc)   XCENC  =       -31.92868499
  PAW double counting   =       677.48627982     -615.11396887
  entropy T*S    EENTRO =         0.05842112
  eigenvalues    EBANDS =       -59.38083784
  atomic energy  EATOM  =       810.72239932
  Solvation  Ediel_sol  =         0.00000000
  ---------------------------------------------------
  free energy    TOTEN  =        -2.33570903 eV

  energy without entropy =       -2.39413015  energy(sigma->0) =       -2.35518274


--------------------------------------------------------------------------------------------------------




----------------------------------------- Iteration    1(  13)  ---------------------------------------


    POTLOK:  cpu time    0.0240: real time    0.0245
    SETDIJ:  cpu time    0.0030: real time    0.0031
    EDDIAG:  cpu time    0.0030: real time    0.0021
  RMM-DIIS:  cpu time    0.0040: real time    0.0044
    ORTHCH:  cpu time    0.0000: real time    0.0002
       DOS:  cpu time    0.0000: real time    0.0002
    CHARGE:  cpu time    0.0040: real time    0.0030
    MIXING:  cpu time    0.0000: real time    0.0006
    --------------------------------------------
      LOOP:  cpu time    0.0380: real time    0.0399

 eigenvalue-minimisations  :    20
 total energy-change (2. order) : 0.8204829E+00  (-0.3943935E+00)
 number of electron       9.9999887 magnetization 
 augmentation part        4.6124101 magnetization 

 Broyden mixing:
  rms(total) = 0.13792E+00    rms(broyden)= 0.13789E+00
  rms(prec ) = 0.30640E+00
  weight for this iteration     100.00

 eigenvalues of (default mixing * dielectric matrix)
  average eigenvalue GAMMA=   1.1667
  1.1667

 Free energy of the ion-electron system (eV)
  ---------------------------------------------------
  alpha Z        PSCENC =         6.28696389
  Ewald energy   TEWEN  =      -340.47066676
  -Hartree energ DENC   =      -470.50158127
  -exchange      EXHF   =         0.00000000
  -V(xc)+E(xc)   XCENC  =       -31.30992806
  PAW double counting   =       718.89608877     -654.99585219
  entropy T*S    EENTRO =         0.08590517
  eigenvalues    EBANDS =       -40.22855505
  atomic energy  EATOM  =       810.72239932
  Solvation  Ediel_sol  =         0.00000000
  ---------------------------------------------------
  free energy    TOTEN  =        -1.51522618 eV

  energy without entropy =       -1.60113134  energy(sigma->0) =       -1.54386123


--------------------------------------------------------------------------------------------------------




----------------------------------------- Iteration    1(  14)  ---------------------------------------


    POTLOK:  cpu time    0.0240: real time    0.0242
    SETDIJ:  cpu time    0.0030: real time    0.0030
    EDDIAG:  cpu time    0.0020: real time    0.0021
  RMM-DIIS:  cpu time    0.0050: real time    0.0047
    ORTHCH:  cpu time    0.0000: real time    0.0002
       DOS:  cpu time    0.0000: real time    0.0002
    CHARGE:  cpu time    0.0030: real time    0.0030
    MIXING:  cpu time    0.0010: real time    0.0007
    --------------------------------------------
      LOOP:  cpu time    0.0390: real time    0.0397

 eigenvalue-minimisations  :    22
 total energy-change (2. order) :-0.3319228E+00  (-0.1348877E+00)
 number of electron       9.9999913 magnetization 
 augmentation part        3.5643738 magnetization 

 Broyden mixing:
  rms(total) = 0.89804E+00    rms(broyden)= 0.89784E+00
  rms(prec ) = 0.19119E+01
  weight for this iteration     100.00

 eigenvalues of (default mixing * dielectric matrix)
  average eigenvalue GAMMA=   0.6434
  0.6434  0.6434

 Free energy of the ion-electron system (eV)
  ---------------------------------------------------
  alpha Z        PSCENC =         6.28696389
  Ewald energy   TEWEN  =      -340.47066676
  -Hartree energ DENC   =      -479.56238536
  -exchange      EXHF   =         0.00000000
  -V(xc)+E(xc)   XCENC  =       -30.98279777
  PAW double counting   =       736.30022690     -671.13704720
  entropy T*S    EENTRO =        -0.16208123
  eigenvalues    EBANDS =       -32.84176078
  atomic energy  EATOM  =       810.72239932
  Solvation  Ediel_sol  =         0.00000000
  ---------------------------------------------------
  free energy    TOTEN  =        -1.84714898 eV

  energy without entropy =       -1.68506776  energy(sigma->0) =       -1.79312191


--------------------------------------------------------------------------------------------------------




----------------------------------------- Iteration    1(  15)  ---------------------------------------


    POTLOK:  cpu time    0.0240: real time    0.0244
    SETDIJ:  cpu time    0.0030: real time    0.0031
    EDDIAG:  cpu time    0.0020: real time    0.0021
  RMM-DIIS:  cpu time    0.0050: real time    0.0044
    ORTHCH:  cpu time    0.0000: real time    0.0002
       DOS:  cpu time    0.0000: real time    0.0002
    CHARGE:  cpu time    0.0030: real time    0.0027
    MIXING:  cpu time    0.0000: real time    0.0007
    --------------------------------------------
      LOOP:  cpu time    0.0380: real time    0.0395

 eigenvalue-minimisations  :    20
 total energy-change (2. order) : 0.1704554E+00  (-0.1650860E+00)
 number of electron       9.9999886 magnetization 
 augmentation part        4.6197466 magnetization 

 Broyden mixing:
  rms(total) = 0.17317E+00    rms(broyden)= 0.17117E+00
  rms(prec ) = 0.36630E+00
  weight for this iteration     100.00

 eigenvalues of (default mixing * dielectric matrix)
  average eigenvalue GAMMA=   0.6817
  0.8720  0.8720  0.3010

 Free energy of the ion-electron system (eV)
  ---------------------------------------------------
  alpha Z        PSCENC =         6.28696389
  Ewald energy   TEWEN  =      -340.47066676
  -Hartree energ DENC   =      -463.44800945
  -exchange      EXHF   =         0.00000000
  -V(xc)+E(xc)   XCENC  =       -31.50448849
  PAW double counting   =       703.20627624     -639.28710231
  entropy T*S    EENTRO =         0.05816525
  eigenvalues    EBANDS =       -47.24023131
  atomic energy  EATOM  =       810.72239932
  Solvation  Ediel_sol  =         0.00000000
  ---------------------------------------------------
  free energy    TOTEN  =        -1.67669361 eV

  energy without entropy =       -1.73485886  energy(sigma->0) =       -1.69608203


--------------------------------------------------------------------------------------------------------




----------------------------------------- Iteration    1(  16)  ---------------------------------------


    POTLOK:  cpu time    0.0250: real time    0.0246
    SETDIJ:  cpu time    0.0030: real time    0.0030
    EDDIAG:  cpu time    0.0020: real time    0.0021
  RMM-DIIS:  cpu time    0.0040: real time    0.0047
    ORTHCH:  cpu time    0.0000: real time    0.0002
       DOS:  cpu time    0.0000: real time    0.0002
    CHARGE:  cpu time    0.0030: real time    0.0027
    MIXING:  cpu time    0.0000: real time    0.0007
    --------------------------------------------
      LOOP:  cpu time    0.0390: real time    0.0400

 eigenvalue-minimisations  :    22
 total energy-change (2. order) :-0.2371963E-01  (-0.1970394E-01)
 number of electron       9.9999885 magnetization 
 augmentation part        4.6626166 magnetization 

 Broyden mixing:
  rms(total) = 0.20624E+00    rms(broyden)= 0.20601E+00
  rms(prec ) = 0.44613E+00
  weight for this iteration     100.00

 eigenvalues of (default mixing * dielectric matrix)
  average eigenvalue GAMMA=   1.0293
  2.6798  0.5171  0.5171  0.4032

 Free energy of the ion-electron system (eV)
  ---------------------------------------------------
  alpha Z        PSCENC =         6.28696389
  Ewald energy   TEWEN  =      -340.47066676
  -Hartree energ DENC   =      -463.62500835
  -exchange      EXHF   =         0.00000000
  -V(xc)+E(xc)   XCENC  =       -31.50552415
  PAW double counting   =       702.79889656     -638.59394018
  entropy T*S    EENTRO =         0.06017636
  eigenvalues    EBANDS =       -47.37370995
  atomic energy  EATOM  =       810.72239932
  Solvation  Ediel_sol  =         0.00000000
  ---------------------------------------------------
  free energy    TOTEN  =        -1.70041324 eV

  energy without entropy =       -1.76058960  energy(sigma->0) =       -1.72047202


--------------------------------------------------------------------------------------------------------




----------------------------------------- Iteration    1(  17)  ---------------------------------------


    POTLOK:  cpu time    0.0230: real time    0.0241
    SETDIJ:  cpu time    0.0030: real time    0.0030
    EDDIAG:  cpu time    0.0020: real time    0.0022
  RMM-DIIS:  cpu time    0.0050: real time    0.0044
    ORTHCH:  cpu time    0.0000: real time    0.0002
       DOS:  cpu time    0.0000: real time    0.0002
    CHARGE:  cpu time    0.0030: real time    0.0027
    MIXING:  cpu time    0.0010: real time    0.0008
    --------------------------------------------
      LOOP:  cpu time    0.0380: real time    0.0393

 eigenvalue-minimisations  :    20
 total energy-change (2. order) : 0.4360082E-01  (-0.8978010E-03)
 number of electron       9.9999886 magnetization 
 augmentation part        4.6534425 magnetization 

 Broyden mixing:
  rms(total) = 0.18651E+00    rms(broyden)= 0.18649E+00
  rms(prec ) = 0.40550E+00
  weight for this iteration     100.00

 eigenvalues of (default mixing * dielectric matrix)
  average eigenvalue GAMMA=   0.9211
  2.0416  1.1302  0.5355  0.5355  0.3628

 Free energy of the ion-electron system (eV)
  ---------------------------------------------------
  alpha Z        PSCENC =         6.28696389
  Ewald energy   TEWEN  =      -340.47066676
  -Hartree energ DENC   =      -465.48916403
  -exchange      EXHF   =         0.00000000
  -V(xc)+E(xc)   XCENC  =       -31.44278293
  PAW double counting   =       705.56958932     -640.94163909
  entropy T*S    EENTRO =         0.05860160
  eigenvalues    EBANDS =       -45.95011374
  atomic energy  EATOM  =       810.72239932
  Solvation  Ediel_sol  =         0.00000000
  ---------------------------------------------------
  free energy    TOTEN  =        -1.65681242 eV

  energy without entropy =       -1.71541402  energy(sigma->0) =       -1.67634629


--------------------------------------------------------------------------------------------------------




----------------------------------------- Iteration    1(  18)  ---------------------------------------


    POTLOK:  cpu time    0.0230: real time    0.0241
    SETDIJ:  cpu time    0.0040: real time    0.0031
    EDDIAG:  cpu time    0.0020: real time    0.0021
  RMM-DIIS:  cpu time    0.0040: real time    0.0044
    ORTHCH:  cpu time    0.0000: real time    0.0002
       DOS:  cpu time    0.0010: real time    0.0002
    CHARGE:  cpu time    0.0030: real time    0.0038
    MIXING:  cpu time    0.0010: real time    0.0009
    --------------------------------------------
      LOOP:  cpu time    0.0390: real time    0.0405

 eigenvalue-minimisations  :    20
 total energy-change (2. order) : 0.5447933E-01  (-0.3812006E-02)
 number of electron       9.9999886 magnetization 
 augmentation part        4.6299468 magnetization 

 Broyden mixing:
  rms(total) = 0.15231E+00    rms(broyden)= 0.15231E+00
  rms(prec ) = 0.33568E+00
  weight for this iteration     100.00

 eigenvalues of (default mixing * dielectric matrix)
  average eigenvalue GAMMA=   0.9879
  2.2568  1.4091  0.8071  0.5433  0.5433  0.3678

 Free energy of the ion-electron system (eV)
  ---------------------------------------------------
  alpha Z        PSCENC =         6.28696389
  Ewald energy   TEWEN  =      -340.47066676
  -Hartree energ DENC   =      -467.71560240
  -exchange      EXHF   =         0.00000000
  -V(xc)+E(xc)   XCENC  =       -31.36507134
  PAW double counting   =       709.23642727     -644.36256062
  entropy T*S    EENTRO =         0.05929360
  eigenvalues    EBANDS =       -43.99351606
  atomic energy  EATOM  =       810.72239932
  Solvation  Ediel_sol  =         0.00000000
  ---------------------------------------------------
  free energy    TOTEN  =        -1.60233309 eV

  energy without entropy =       -1.66162669  energy(sigma->0) =       -1.62209763


--------------------------------------------------------------------------------------------------------




----------------------------------------- Iteration    1(  19)  ---------------------------------------


    POTLOK:  cpu time    0.0230: real time    0.0240
    SETDIJ:  cpu time    0.0030: real time    0.0030
    EDDIAG:  cpu time    0.0020: real time    0.0021
  RMM-DIIS:  cpu time    0.0040: real time    0.0044
    ORTHCH:  cpu time    0.0010: real time    0.0002
       DOS:  cpu time    0.0000: real time    0.0002
    CHARGE:  cpu time    0.0030: real time    0.0028
    MIXING:  cpu time    0.0010: real time    0.0009
    --------------------------------------------
      LOOP:  cpu time    0.0390: real time    0.0393

 eigenvalue-minimisations  :    20
 total energy-change (2. order) :-0.2469200E-01  (-0.1941927E-03)
 number of electron       9.9999886 magnetization 
 augmentation part        4.6350124 magnetization 

 Broyden mixing:
  rms(total) = 0.16132E+00    rms(broyden)= 0.16132E+00
  rms(prec ) = 0.35635E+00
  weight for this iteration     100.00

 eigenvalues of (default mixing * dielectric matrix)
  average eigenvalue GAMMA=   1.3430
  2.8496  2.8496  1.3228  0.8745  0.5659  0.5659  0.3729

 Free energy of the ion-electron system (eV)
  ---------------------------------------------------
  alpha Z        PSCENC =         6.28696389
  Ewald energy   TEWEN  =      -340.47066676
  -Hartree energ DENC   =      -466.63616711
  -exchange      EXHF   =         0.00000000
  -V(xc)+E(xc)   XCENC  =       -31.40671042
  PAW double counting   =       707.74225001     -642.95996924
  entropy T*S    EENTRO =         0.05896740
  eigenvalues    EBANDS =       -44.96409218
  atomic energy  EATOM  =       810.72239932
  Solvation  Ediel_sol  =         0.00000000
  ---------------------------------------------------
  free energy    TOTEN  =        -1.62702509 eV

  energy without entropy =       -1.68599249  energy(sigma->0) =       -1.64668089


--------------------------------------------------------------------------------------------------------




----------------------------------------- Iteration    1(  20)  ---------------------------------------


    POTLOK:  cpu time    0.0240: real time    0.0245
    SETDIJ:  cpu time    0.0030: real time    0.0030
    EDDIAG:  cpu time    0.0020: real time    0.0021
  RMM-DIIS:  cpu time    0.0040: real time    0.0044
    ORTHCH:  cpu time    0.0000: real time    0.0002
       DOS:  cpu time    0.0010: real time    0.0002
    CHARGE:  cpu time    0.0030: real time    0.0029
    MIXING:  cpu time    0.0010: real time    0.0010
    --------------------------------------------
      LOOP:  cpu time    0.0390: real time    0.0401

 eigenvalue-minimisations  :    20
 total energy-change (2. order) : 0.7702301E-01  (-0.8758273E-02)
 number of electron       9.9999887 magnetization 
 augmentation part        4.6003105 magnetization 

 Broyden mixing:
  rms(total) = 0.11387E+00    rms(broyden)= 0.11387E+00
  rms(prec ) = 0.25314E+00
  weight for this iteration     100.00

 eigenvalues of (default mixing * dielectric matrix)
  average eigenvalue GAMMA=   1.5278
  3.5035  3.5035  2.1629  0.5677  0.5677  0.3741  0.8769  0.6657

 Free energy of the ion-electron system (eV)
  ---------------------------------------------------
  alpha Z        PSCENC =         6.28696389
  Ewald energy   TEWEN  =      -340.47066676
  -Hartree energ DENC   =      -470.37700162
  -exchange      EXHF   =         0.00000000
  -V(xc)+E(xc)   XCENC  =       -31.26562523
  PAW double counting   =       713.27650320     -648.25852985
  entropy T*S    EENTRO =         0.06100254
  eigenvalues    EBANDS =       -41.52504759
  atomic energy  EATOM  =       810.72239932
  Solvation  Ediel_sol  =         0.00000000
  ---------------------------------------------------
  free energy    TOTEN  =        -1.55000208 eV

  energy without entropy =       -1.61100463  energy(sigma->0) =       -1.57033627


--------------------------------------------------------------------------------------------------------




----------------------------------------- Iteration    1(  21)  ---------------------------------------


    POTLOK:  cpu time    0.0240: real time    0.0248
    SETDIJ:  cpu time    0.0030: real time    0.0030
    EDDIAG:  cpu time    0.0020: real time    0.0022
  RMM-DIIS:  cpu time    0.0050: real time    0.0048
    ORTHCH:  cpu time    0.0000: real time    0.0002
       DOS:  cpu time    0.0000: real time    0.0002
    CHARGE:  cpu time    0.0030: real time    0.0030
    MIXING:  cpu time    0.0020: real time    0.0011
    --------------------------------------------
      LOOP:  cpu time    0.0400: real time    0.0409

 eigenvalue-minimisations  :    22
 total energy-change (2. order) : 0.2575111E-01  (-0.5141682E-02)
 number of electron       9.9999887 magnetization 
 augmentation part        4.5825873 magnetization 

 Broyden mixing:
  rms(total) = 0.90797E-01    rms(broyden)= 0.90791E-01
  rms(prec ) = 0.20044E+00
  weight for this iteration     100.00

 eigenvalues of (default mixing * dielectric matrix)
  average eigenvalue GAMMA=   1.5033
  3.8983  3.8983  2.3048  0.5703  0.5703  0.8178  0.3724  0.5489  0.5489

 Free energy of the ion-electron system (eV)
  ---------------------------------------------------
  alpha Z        PSCENC =         6.28696389
  Ewald energy   TEWEN  =      -340.47066676
  -Hartree energ DENC   =      -472.27451095
  -exchange      EXHF   =         0.00000000
  -V(xc)+E(xc)   XCENC  =       -31.19110083
  PAW double counting   =       715.99841595     -650.80256889
  entropy T*S    EENTRO =         0.07257365
  eigenvalues    EBANDS =       -39.86575636
  atomic energy  EATOM  =       810.72239932
  Solvation  Ediel_sol  =         0.00000000
  ---------------------------------------------------
  free energy    TOTEN  =        -1.52425097 eV

  energy without entropy =       -1.59682462  energy(sigma->0) =       -1.54844219


--------------------------------------------------------------------------------------------------------




----------------------------------------- Iteration    1(  22)  ---------------------------------------


    POTLOK:  cpu time    0.0250: real time    0.0248
    SETDIJ:  cpu time    0.0030: real time    0.0030
    EDDIAG:  cpu time    0.0020: real time    0.0021
  RMM-DIIS:  cpu time    0.0050: real time    0.0048
    ORTHCH:  cpu time    0.0000: real time    0.0002
       DOS:  cpu time    0.0000: real time    0.0002
    CHARGE:  cpu time    0.0030: real time    0.0029
    MIXING:  cpu time    0.0010: real time    0.0011
    --------------------------------------------
      LOOP:  cpu time    0.0390: real time    0.0409

 eigenvalue-minimisations  :    22
 total energy-change (2. order) : 0.2073472E-01  (-0.2368554E-02)
 number of electron       9.9999887 magnetization 
 augmentation part        4.5852990 magnetization 

 Broyden mixing:
  rms(total) = 0.87034E-01    rms(broyden)= 0.87032E-01
  rms(prec ) = 0.19140E+00
  weight for this iteration     100.00

 eigenvalues of (default mixing * dielectric matrix)
  average eigenvalue GAMMA=   1.6473
  4.6834  4.6834  2.1687  1.0134  1.0134  0.8609  0.5682  0.5682  0.3738  0.5396

 Free energy of the ion-electron system (eV)
  ---------------------------------------------------
  alpha Z        PSCENC =         6.28696389
  Ewald energy   TEWEN  =      -340.47066676
  -Hartree energ DENC   =      -473.86266442
  -exchange      EXHF   =         0.00000000
  -V(xc)+E(xc)   XCENC  =       -31.12847954
  PAW double counting   =       718.39403929     -653.04342540
  entropy T*S    EENTRO =         0.09524003
  eigenvalues    EBANDS =       -38.49692267
  atomic energy  EATOM  =       810.72239932
  Solvation  Ediel_sol  =         0.00000000
  ---------------------------------------------------
  free energy    TOTEN  =        -1.50351625 eV

  energy without entropy =       -1.59875629  energy(sigma->0) =       -1.53526293


--------------------------------------------------------------------------------------------------------




----------------------------------------- Iteration    1(  23)  ---------------------------------------


    POTLOK:  cpu time    0.0250: real time    0.0248
    SETDIJ:  cpu time    0.0030: real time    0.0031
    EDDIAG:  cpu time    0.0020: real time    0.0021
  RMM-DIIS:  cpu time    0.0050: real time    0.0048
    ORTHCH:  cpu time    0.0000: real time    0.0002
       DOS:  cpu time    0.0000: real time    0.0002
    CHARGE:  cpu time    0.0030: real time    0.0030
    MIXING:  cpu time    0.0020: real time    0.0012
    --------------------------------------------
      LOOP:  cpu time    0.0410: real time    0.0412

 eigenvalue-minimisations  :    22
 total energy-change (2. order) : 0.1638402E-01  (-0.4464726E-02)
 number of electron       9.9999890 magnetization 
 augmentation part        4.4556650 magnetization 

 Broyden mixing:
  rms(total) = 0.41347E-01    rms(broyden)= 0.41207E-01
  rms(prec ) = 0.89432E-01
  weight for this iteration     100.00

 eigenvalues of (default mixing * dielectric matrix)
  average eigenvalue GAMMA=   1.7447
  7.2188  2.9601  2.2552  2.2552  0.8515  0.8515  0.5684  0.5684  0.7639  0.3739
  0.5249

 Free energy of the ion-electron system (eV)
  ---------------------------------------------------
  alpha Z        PSCENC =         6.28696389
  Ewald energy   TEWEN  =      -340.47066676
  -Hartree energ DENC   =      -476.20148022
  -exchange      EXHF   =         0.00000000
  -V(xc)+E(xc)   XCENC  =       -31.03585369
  PAW double counting   =       722.07862945     -656.48623062
  entropy T*S    EENTRO =         0.02839076
  eigenvalues    EBANDS =       -36.40928436
  atomic energy  EATOM  =       810.72239932
  Solvation  Ediel_sol  =         0.00000000
  ---------------------------------------------------
  free energy    TOTEN  =        -1.48713223 eV

  energy without entropy =       -1.51552299  energy(sigma->0) =       -1.49659582


--------------------------------------------------------------------------------------------------------




----------------------------------------- Iteration    1(  24)  ---------------------------------------


    POTLOK:  cpu time    0.0250: real time    0.0248
    SETDIJ:  cpu time    0.0030: real time    0.0030
    EDDIAG:  cpu time    0.0020: real time    0.0021
  RMM-DIIS:  cpu time    0.0050: real time    0.0045
    ORTHCH:  cpu time    0.0000: real time    0.0002
       DOS:  cpu time    0.0000: real time    0.0002
    CHARGE:  cpu time    0.0030: real time    0.0030
    MIXING:  cpu time    0.0020: real time    0.0013
    --------------------------------------------
      LOOP:  cpu time    0.0400: real time    0.0409

 eigenvalue-minimisations  :    20
 total energy-change (2. order) :-0.1806928E-01  (-0.3278981E-02)
 number of electron       9.9999887 magnetization 
 augmentation part        4.5766491 magnetization 

 Broyden mixing:
  rms(total) = 0.80146E-01    rms(broyden)= 0.80057E-01
  rms(prec ) = 0.17532E+00
  weight for this iteration     100.00

 eigenvalues of (default mixing * dielectric matrix)
  average eigenvalue GAMMA=   1.8297
  6.2213  6.2213  2.6815  1.3795  1.0255  1.0255  0.5696  0.5696  0.6904  0.6904
  0.3740  0.5074

 Free energy of the ion-electron system (eV)
  ---------------------------------------------------
  alpha Z        PSCENC =         6.28696389
  Ewald energy   TEWEN  =      -340.47066676
  -Hartree energ DENC   =      -473.79200237
  -exchange      EXHF   =         0.00000000
  -V(xc)+E(xc)   XCENC  =       -31.13320003
  PAW double counting   =       718.22097777     -652.82450704
  entropy T*S    EENTRO =         0.09209871
  eigenvalues    EBANDS =       -38.60726500
  atomic energy  EATOM  =       810.72239932
  Solvation  Ediel_sol  =         0.00000000
  ---------------------------------------------------
  free energy    TOTEN  =        -1.50520151 eV

  energy without entropy =       -1.59730022  energy(sigma->0) =       -1.53590108


--------------------------------------------------------------------------------------------------------




----------------------------------------- Iteration    1(  25)  ---------------------------------------


    POTLOK:  cpu time    0.0250: real time    0.0251
    SETDIJ:  cpu time    0.0030: real time    0.0031
    EDDIAG:  cpu time    0.0020: real time    0.0021
  RMM-DIIS:  cpu time    0.0050: real time    0.0045
    ORTHCH:  cpu time    0.0000: real time    0.0002
       DOS:  cpu time    0.0000: real time    0.0002
    CHARGE:  cpu time    0.0030: real time    0.0030
    MIXING:  cpu time    0.0020: real time    0.0014
    --------------------------------------------
      LOOP:  cpu time    0.0400: real time    0.0412

 eigenvalue-minimisations  :    20
 total energy-change (2. order) : 0.2006766E-01  (-0.1053575E-02)
 number of electron       9.9999889 magnetization 
 augmentation part        4.5140177 magnetization 

 Broyden mixing:
  rms(total) = 0.14955E-01    rms(broyden)= 0.14714E-01
  rms(prec ) = 0.31611E-01
  weight for this iteration     100.00

 eigenvalues of (default mixing * dielectric matrix)
  average eigenvalue GAMMA=   2.0473
 13.0671  2.8639  2.8639  1.4849  1.0667  1.0667  0.5690  0.5690  0.8500  0.3741
  0.7407  0.6066  0.4918

 Free energy of the ion-electron system (eV)
  ---------------------------------------------------
  alpha Z        PSCENC =         6.28696389
  Ewald energy   TEWEN  =      -340.47066676
  -Hartree energ DENC   =      -475.72247092
  -exchange      EXHF   =         0.00000000
  -V(xc)+E(xc)   XCENC  =       -31.05376900
  PAW double counting   =       721.20642325     -655.60352782
  entropy T*S    EENTRO =         0.05841386
  eigenvalues    EBANDS =       -36.90889968
  atomic energy  EATOM  =       810.72239932
  Solvation  Ediel_sol  =         0.00000000
  ---------------------------------------------------
  free energy    TOTEN  =        -1.48513386 eV

  energy without entropy =       -1.54354771  energy(sigma->0) =       -1.50460514


--------------------------------------------------------------------------------------------------------




----------------------------------------- Iteration    1(  26)  ---------------------------------------


    POTLOK:  cpu time    0.0240: real time    0.0251
    SETDIJ:  cpu time    0.0030: real time    0.0030
    EDDIAG:  cpu time    0.0020: real time    0.0021
  RMM-DIIS:  cpu time    0.0040: real time    0.0046
    ORTHCH:  cpu time    0.0000: real time    0.0002
       DOS:  cpu time    0.0010: real time    0.0002
    CHARGE:  cpu time    0.0030: real time    0.0029
    MIXING:  cpu time    0.0010: real time    0.0015
    --------------------------------------------
      LOOP:  cpu time    0.0390: real time    0.0413

 eigenvalue-minimisations  :    20
 total energy-change (2. order) :-0.5624261E-02  (-0.1052449E-02)
 number of electron       9.9999892 magnetization 
 augmentation part        4.3928668 magnetization 

 Broyden mixing:
  rms(total) = 0.99465E-01    rms(broyden)= 0.99428E-01
  rms(prec ) = 0.21964E+00
  weight for this iteration     100.00

 eigenvalues of (default mixing * dielectric matrix)
  average eigenvalue GAMMA=   1.7612
 10.4609  2.9432  2.9432  1.2751  1.2751  1.2747  0.9982  0.5694  0.5694  0.6990
  0.5850  0.3742  0.4595  0.2296

 Free energy of the ion-electron system (eV)
  ---------------------------------------------------
  alpha Z        PSCENC =         6.28696389
  Ewald energy   TEWEN  =      -340.47066676
  -Hartree energ DENC   =      -476.68347764
  -exchange      EXHF   =         0.00000000
  -V(xc)+E(xc)   XCENC  =       -31.01803470
  PAW double counting   =       722.63282079     -656.95784528
  entropy T*S    EENTRO =        -0.00422206
  eigenvalues    EBANDS =       -35.99869569
  atomic energy  EATOM  =       810.72239932
  Solvation  Ediel_sol  =         0.00000000
  ---------------------------------------------------
  free energy    TOTEN  =        -1.49075812 eV

  energy without entropy =       -1.48653606  energy(sigma->0) =       -1.48935076


--------------------------------------------------------------------------------------------------------




----------------------------------------- Iteration    1(  27)  ---------------------------------------


    POTLOK:  cpu time    0.0250: real time    0.0251
    SETDIJ:  cpu time    0.0030: real time    0.0031
    EDDIAG:  cpu time    0.0020: real time    0.0021
  RMM-DIIS:  cpu time    0.0040: real time    0.0045
    ORTHCH:  cpu time    0.0010: real time    0.0002
       DOS:  cpu time    0.0000: real time    0.0002
    CHARGE:  cpu time    0.0030: real time    0.0030
    MIXING:  cpu time    0.0020: real time    0.0016
    --------------------------------------------
      LOOP:  cpu time    0.0410: real time    0.0415

 eigenvalue-minimisations  :    20
 total energy-change (2. order) :-0.6933101E-02  (-0.2549310E-02)
 number of electron       9.9999887 magnetization 
 augmentation part        4.5768848 magnetization 

 Broyden mixing:
  rms(total) = 0.77741E-01    rms(broyden)= 0.77559E-01
  rms(prec ) = 0.16965E+00
  weight for this iteration     100.00

 eigenvalues of (default mixing * dielectric matrix)
  average eigenvalue GAMMA=   1.6488
  5.8588  5.8588  2.8338  1.9689  1.3884  1.3884  1.0028  0.7597  0.5686  0.5686
  0.6663  0.4926  0.4926  0.5100  0.3740

 Free energy of the ion-electron system (eV)
  ---------------------------------------------------
  alpha Z        PSCENC =         6.28696389
  Ewald energy   TEWEN  =      -340.47066676
  -Hartree energ DENC   =      -474.40016476
  -exchange      EXHF   =         0.00000000
  -V(xc)+E(xc)   XCENC  =       -31.10983472
  PAW double counting   =       718.99293064     -653.49328614
  entropy T*S    EENTRO =         0.09637986
  eigenvalues    EBANDS =       -38.12241255
  atomic energy  EATOM  =       810.72239932
  Solvation  Ediel_sol  =         0.00000000
  ---------------------------------------------------
  free energy    TOTEN  =        -1.49769122 eV

  energy without entropy =       -1.59407108  energy(sigma->0) =       -1.52981784


--------------------------------------------------------------------------------------------------------




----------------------------------------- Iteration    1(  28)  ---------------------------------------


    POTLOK:  cpu time    0.0240: real time    0.0252
    SETDIJ:  cpu time    0.0030: real time    0.0031
    EDDIAG:  cpu time    0.0030: real time    0.0021
  RMM-DIIS:  cpu time    0.0040: real time    0.0044
    ORTHCH:  cpu time    0.0000: real time    0.0002
       DOS:  cpu time    0.0000: real time    0.0002
    CHARGE:  cpu time    0.0030: real time    0.0030
    MIXING:  cpu time    0.0010: real time    0.0017
    --------------------------------------------
      LOOP:  cpu time    0.0400: real time    0.0418

 eigenvalue-minimisations  :    20
 total energy-change (2. order) : 0.1272978E-01  (-0.8642985E-03)
 number of electron       9.9999890 magnetization 
 augmentation part        4.4797889 magnetization 

 Broyden mixing:
  rms(total) = 0.18619E-01    rms(broyden)= 0.18220E-01
  rms(prec ) = 0.40030E-01
  weight for this iteration     100.00

 eigenvalues of (default mixing * dielectric matrix)
  average eigenvalue GAMMA=   1.6194
  6.0685  6.0685  2.8327  2.5290  1.1450  1.1450  1.1310  0.7898  0.5688  0.5688
  0.6212  0.6212  0.3740  0.4669  0.4669  0.5134

 Free energy of the ion-electron system (eV)
  ---------------------------------------------------
  alpha Z        PSCENC =         6.28696389
  Ewald energy   TEWEN  =      -340.47066676
  -Hartree energ DENC   =      -476.03965866
  -exchange      EXHF   =         0.00000000
  -V(xc)+E(xc)   XCENC  =       -31.04201603
  PAW double counting   =       721.53141971     -655.88977595
  entropy T*S    EENTRO =         0.03960326
  eigenvalues    EBANDS =       -36.62323022
  atomic energy  EATOM  =       810.72239932
  Solvation  Ediel_sol  =         0.00000000
  ---------------------------------------------------
  free energy    TOTEN  =        -1.48496144 eV

  energy without entropy =       -1.52456469  energy(sigma->0) =       -1.49816252


--------------------------------------------------------------------------------------------------------




----------------------------------------- Iteration    1(  29)  ---------------------------------------


    POTLOK:  cpu time    0.0240: real time    0.0251
    SETDIJ:  cpu time    0.0030: real time    0.0031
    EDDIAG:  cpu time    0.0020: real time    0.0021
  RMM-DIIS:  cpu time    0.0040: real time    0.0133
    ORTHCH:  cpu time    0.0000: real time    0.0002
       DOS:  cpu time    0.0000: real time    0.0002
    CHARGE:  cpu time    0.0030: real time    0.0030
    MIXING:  cpu time    0.0020: real time    0.0018
    --------------------------------------------
      LOOP:  cpu time    0.0410: real time    0.0505

 eigenvalue-minimisations  :    17
 total energy-change (2. order) : 0.8337722E-03  (-0.6740639E-04)
 number of electron       9.9999890 magnetization 
 augmentation part        4.4905154 magnetization 

 Broyden mixing:
  rms(total) = 0.95834E-02    rms(broyden)= 0.94729E-02
  rms(prec ) = 0.18277E-01
  weight for this iteration     100.00

 eigenvalues of (default mixing * dielectric matrix)
  average eigenvalue GAMMA=   1.5500
  6.0955  6.0955  2.5036  2.5036  1.4556  1.0875  1.0875  0.5495  0.5495  0.5705
  0.5705  0.7018  0.5512  0.5512  0.3739  0.6093  0.4942

 Free energy of the ion-electron system (eV)
  ---------------------------------------------------
  alpha Z        PSCENC =         6.28696389
  Ewald energy   TEWEN  =      -340.47066676
  -Hartree energ DENC   =      -475.98277327
  -exchange      EXHF   =         0.00000000
  -V(xc)+E(xc)   XCENC  =       -31.04674101
  PAW double counting   =       721.37943168     -655.75952872
  entropy T*S    EENTRO =         0.04634626
  eigenvalues    EBANDS =       -36.65955906
  atomic energy  EATOM  =       810.72239932
  Solvation  Ediel_sol  =         0.00000000
  ---------------------------------------------------
  free energy    TOTEN  =        -1.48412767 eV

  energy without entropy =       -1.53047393  energy(sigma->0) =       -1.49957642


--------------------------------------------------------------------------------------------------------




----------------------------------------- Iteration    1(  30)  ---------------------------------------


    POTLOK:  cpu time    0.0250: real time    0.0252
    SETDIJ:  cpu time    0.0030: real time    0.0030
    EDDIAG:  cpu time    0.0020: real time    0.0021
  RMM-DIIS:  cpu time    0.0040: real time    0.0040
    ORTHCH:  cpu time    0.0000: real time    0.0002
       DOS:  cpu time    0.0000: real time    0.0002
    --------------------------------------------
      LOOP:  cpu time    0.0350: real time    0.0365

 eigenvalue-minimisations  :    17
 total energy-change (2. order) :-0.2740748E-04  (-0.3053099E-04)
 number of electron       9.9999890 magnetization 
 augmentation part        4.4905154 magnetization 

 Free energy of the ion-electron system (eV)
  ---------------------------------------------------
  alpha Z        PSCENC =         6.28696389
  Ewald energy   TEWEN  =      -340.47066676
  -Hartree energ DENC   =      -475.75281938
  -exchange      EXHF   =         0.00000000
  -V(xc)+E(xc)   XCENC  =       -31.05468038
  PAW double counting   =       721.00591284     -655.39720593
  entropy T*S    EENTRO =         0.05844747
  eigenvalues    EBANDS =       -36.88250615
  atomic energy  EATOM  =       810.72239932
  Solvation  Ediel_sol  =         0.00000000
  ---------------------------------------------------
  free energy    TOTEN  =        -1.48415507 eV

  energy without entropy =       -1.54260254  energy(sigma->0) =       -1.50363756


--------------------------------------------------------------------------------------------------------




 average (electrostatic) potential at core
  the test charge radii are     1.1199
  (the norm of the test charge is              1.0000)
       1 -52.5546
 
 
 
 E-fermi :  -3.5205     XC(G=0):  -3.0458     alpha+bet : -0.8115


 k-point     1 :       0.0000    0.0000    0.0000
  band No.  band energies     occupation 
      1      -3.7140      2.04281
      2      -3.7140      2.04280
      3      -3.6725      1.95811
      4      -3.6725      1.95808
      5      -3.6725      1.95807
      6      -3.3680      0.04013
      7       1.0954      0.00000
      8       1.2759      0.00000
      9       1.2759      0.00000
     10       1.2759      0.00000


--------------------------------------------------------------------------------------------------------


 soft charge-density along one line, spin component           1
         0         1         2         3         4         5         6         7         8         9
 total charge-density along one line
 
 pseudopotential strength for first ion, spin component:           1
-12.250   0.000   0.000   0.000   0.000   0.235   0.000   0.000
  0.000 -12.250   0.000   0.000   0.000   0.000   0.235   0.000
  0.000   0.000 -12.241   0.000   0.000   0.000   0.000   0.234
  0.000   0.000   0.000 -12.250   0.000   0.000   0.000   0.000
  0.000   0.000   0.000   0.000 -12.241   0.000   0.000   0.000
  0.235   0.000   0.000   0.000   0.000   0.308   0.000   0.000
  0.000   0.235   0.000   0.000   0.000   0.000   0.308   0.000
  0.000   0.000   0.234   0.000   0.000   0.000   0.000   0.308
  0.000   0.000   0.000   0.235   0.000   0.000   0.000   0.000
  0.000   0.000   0.000   0.000   0.234   0.000   0.000   0.000
  0.000   0.000   0.000   0.000   0.000   0.000   0.000   0.000
  0.000   0.000   0.000   0.000   0.000   0.000   0.000   0.000
  0.000   0.000   0.000   0.000   0.000   0.000   0.000   0.000
  0.000   0.000   0.000   0.000   0.000   0.000   0.000   0.000
  0.000   0.000   0.000   0.000   0.000   0.000   0.000   0.000
  0.000   0.000   0.000   0.000   0.000   0.000   0.000   0.000
  0.000   0.000   0.000   0.000   0.000   0.000   0.000   0.000
  0.000   0.000   0.000   0.000   0.000   0.000   0.000   0.000
 total augmentation occupancy for first ion, spin component:           1
  1.917   0.000   0.000   0.000   0.000   0.230   0.000   0.000   0.000   0.000   0.000   0.000   0.000   0.000   0.000   0.000
  0.000   1.917   0.000   0.000   0.000   0.000   0.230   0.000   0.000   0.000   0.000   0.000   0.000   0.000   0.000   0.000
  0.000   0.000   1.963   0.000   0.000   0.000   0.000   0.259   0.000   0.000   0.000   0.000   0.000   0.000   0.000   0.000
  0.000   0.000   0.000   1.917   0.000   0.000   0.000   0.000   0.230   0.000   0.000   0.000   0.000   0.000   0.000   0.000
  0.000   0.000   0.000   0.000   1.963   0.000   0.000   0.000   0.000   0.259   0.000   0.000   0.000   0.000   0.000   0.000
  0.230   0.000   0.000   0.000   0.000   0.028   0.000   0.000   0.000   0.000   0.000   0.000   0.000   0.000   0.000   0.000
  0.000   0.230   0.000   0.000   0.000   0.000   0.028   0.000   0.000   0.000   0.000   0.000   0.000   0.000   0.000   0.000
  0.000   0.000   0.259   0.000   0.000   0.000   0.000   0.034   0.000   0.000   0.000   0.000   0.000   0.000   0.000   0.000
  0.000   0.000   0.000   0.230   0.000   0.000   0.000   0.000   0.028   0.000   0.000   0.000   0.000   0.000   0.000   0.000
  0.000   0.000   0.000   0.000   0.259   0.000   0.000   0.000   0.000   0.034   0.000   0.000   0.000   0.000   0.000   0.000
  0.000   0.000   0.000   0.000   0.000   0.000   0.000   0.000   0.000   0.000   0.050  -0.011   0.000   0.000   0.000   0.000
  0.000   0.000   0.000   0.000   0.000   0.000   0.000   0.000   0.000   0.000  -0.011   0.003   0.000   0.000   0.000   0.000
  0.000   0.000   0.000   0.000   0.000   0.000   0.000   0.000   0.000   0.000   0.000   0.000   0.000   0.000   0.000   0.000
  0.000   0.000   0.000   0.000   0.000   0.000   0.000   0.000   0.000   0.000   0.000   0.000   0.000   0.000   0.000   0.000
  0.000   0.000   0.000   0.000   0.000   0.000   0.000   0.000   0.000   0.000   0.000   0.000   0.000   0.000   0.000   0.000
  0.000   0.000   0.000   0.000   0.000   0.000   0.000   0.000   0.000   0.000   0.000   0.000   0.000   0.000   0.000   0.000
  0.000   0.000   0.000   0.000   0.000   0.000   0.000   0.000   0.000   0.000   0.000   0.000   0.000   0.000   0.000   0.000
  0.000   0.000   0.000   0.000   0.000   0.000   0.000   0.000   0.000   0.000   0.000   0.000   0.000   0.000   0.000   0.000


------------------------ aborting loop because EDIFF is reached ----------------------------------------


    CHARGE:  cpu time    0.0030: real time    0.0030
    FORLOC:  cpu time    0.0000: real time    0.0006
    FORNL :  cpu time    0.0040: real time    0.0036
    FORCOR:  cpu time    0.0270: real time    0.0269
    FORHAR:  cpu time    0.0050: real time    0.0050
    MIXING:  cpu time    0.0010: real time    0.0033
    OFIELD:  cpu time    0.0000: real time    0.0000

 VOLUME and BASIS-vectors are now :
 -----------------------------------------------------------------------------
  energy-cutoff  :      274.00
  volume of cell :      216.00
      direct lattice vectors                 reciprocal lattice vectors
     6.000000000  0.000000000  0.000000000     0.166666667  0.000000000  0.000000000
     0.000000000  6.000000000  0.000000000     0.000000000  0.166666667  0.000000000
     0.000000000  0.000000000  6.000000000     0.000000000  0.000000000  0.166666667

  length of vectors
     6.000000000  6.000000000  6.000000000     0.166666667  0.166666667  0.166666667


 FORCES acting on ions
    electron-ion (+dipol)            ewald-force                    non-local-force                 convergence-correction
 -----------------------------------------------------------------------------------------------
   -.142E-05 0.345E-05 -.515E-05   -.126E-15 -.162E-15 -.205E-15   0.291E-05 0.161E-04 -.326E-05   0.593E-06 -.987E-05 0.718E-05
 -----------------------------------------------------------------------------------------------
   -.142E-05 0.345E-05 -.515E-05   -.126E-15 -.162E-15 -.205E-15   0.291E-05 0.161E-04 -.326E-05   0.593E-06 -.987E-05 0.718E-05
 
 
 POSITION                                       TOTAL-FORCE (eV/Angst)
 -----------------------------------------------------------------------------------
      3.00000      3.00000      3.00000         0.000002      0.000010     -0.000001
 -----------------------------------------------------------------------------------
    total drift:                                0.000002      0.000010     -0.000001


--------------------------------------------------------------------------------------------------------



  FREE ENERGIE OF THE ION-ELECTRON SYSTEM (eV)
  ---------------------------------------------------
  free  energy   TOTEN  =        -1.48415507 eV

  energy  without entropy=       -1.54260254  energy(sigma->0) =       -1.50363756
 


--------------------------------------------------------------------------------------------------------


    POTLOK:  cpu time    0.0290: real time    0.0284


--------------------------------------------------------------------------------------------------------


 stress matrix after NEB project (eV)
      0.00000      0.00000      0.00000
      0.00000      0.00000      0.00000
      0.00000      0.00000      0.00000
  FORCES: max atom, RMS     0.000010    0.000010
  FORCE total and by dimension    0.000010    0.000010
  Stress total and by dimension    0.000000    0.000000


--------------------------------------------------------------------------------------------------------


  
 reached required accuracy - stopping structural energy minimisation
     LOOP+:  cpu time    0.8879: real time    0.9343
    4ORBIT:  cpu time    0.0000: real time    0.0000

 total amount of memory used by VASP on root node    31450. kBytes
========================================================================

   base      :      30000. kBytes
   nonlr-proj:         44. kBytes
   fftplans  :        554. kBytes
   grid      :        822. kBytes
   one-center:          7. kBytes
   wavefun   :         23. kBytes
 
  
  
 General timing and accounting informations for this job:
 ========================================================
  
                  Total CPU time used (sec):        1.668
                            User time (sec):        1.531
                          System time (sec):        0.137
                         Elapsed time (sec):        1.825
  
                   Maximum memory used (kb):       28896.
                   Average memory used (kb):           0.
  
                          Minor page faults:         4633
                          Major page faults:            8
                 Voluntary context switches:         1229
