<?xml version="1.0" encoding="ISO-8859-1"?>
<modeling>
 <generator>
  <i name="program" type="string">vasp </i>
  <i name="version" type="string">5.4.1  </i>
  <i name="subversion" type="string">24Jun15 (build Jan 06 2016 13:19:48) gamma-only                       parallel </i>
  <i name="platform" type="string">IFC91_ompi </i>
  <i name="date" type="string">2016 02 18 </i>
  <i name="time" type="string">15:28:37 </i>
 </generator>
 <incar>
  <i type="string" name="SYSTEM"> Pt cube particle</i>
  <i type="string" name="PREC">normal</i>
  <i type="int" name="IALGO">    48</i>
  <i type="int" name="IBRION">     2</i>
  <i name="EDIFF">      0.00010000</i>
  <i name="EDIFFG">     -0.00500000</i>
  <i type="int" name="NSW">   200</i>
  <i type="int" name="ISIF">     0</i>
  <i type="int" name="ISYM">     0</i>
  <i name="ENMAX">    274.00000000</i>
  <i name="POTIM">      0.10000000</i>
  <i type="string" name="LREAL">Auto</i>
  <i type="logical" name="LPLANE"> T  </i>
  <i type="logical" name="LWAVE"> F  </i>
  <i type="logical" name="LCHARG"> F  </i>
  <v type="int" name="KPOINT_BSE">    -1     0     0     0</v>
 </incar>
 <kpoints>
  <generation param="Monkhorst-Pack">
   <v type="int" name="divisions">       1        1        1 </v>
   <v name="usershift">      0.00000000       0.00000000       0.00000000 </v>
   <v name="genvec1">      1.00000000       0.00000000       0.00000000 </v>
   <v name="genvec2">      0.00000000       1.00000000       0.00000000 </v>
   <v name="genvec3">      0.00000000       0.00000000       1.00000000 </v>
   <v name="shift">      0.00000000       0.00000000       0.00000000 </v>
  </generation>
  <varray name="kpointlist" >
   <v>       0.00000000       0.00000000       0.00000000 </v>
  </varray>
  <varray name="weights" >
   <v>       1.00000000 </v>
  </varray>
 </kpoints>
 <parameters>
  <separator name="general" >
   <i type="string" name="SYSTEM">Pt cube particle</i>
   <i type="logical" name="LCOMPAT"> F  </i>
  </separator>
  <separator name="electronic" >
   <i type="string" name="PREC">normal</i>
   <i name="ENMAX">    274.00000000</i>
   <i name="ENAUG">    416.23000000</i>
   <i name="EDIFF">      0.00010000</i>
   <i type="int" name="IALGO">    48</i>
   <i type="int" name="IWAVPR">    11</i>
   <i type="int" name="NBANDS">    10</i>
   <i name="NELECT">     10.00000000</i>
   <i type="int" name="TURBO">     0</i>
   <i type="int" name="IRESTART">     0</i>
   <i type="int" name="NREBOOT">     0</i>
   <i type="int" name="NMIN">     0</i>
   <i name="EREF">      0.00000000</i>
   <separator name="electronic smearing" >
    <i type="int" name="ISMEAR">     1</i>
    <i name="SIGMA">      0.20000000</i>
    <i name="KSPACING">      0.50000000</i>
    <i type="logical" name="KGAMMA"> T  </i>
   </separator>
   <separator name="electronic projectors" >
    <i type="logical" name="LREAL"> T  </i>
    <v name="ROPT">     -0.00050000</v>
    <i type="int" name="LMAXPAW">  -100</i>
    <i type="int" name="LMAXMIX">     2</i>
    <i type="logical" name="NLSPLINE"> F  </i>
   </separator>
   <separator name="electronic startup" >
    <i type="int" name="ISTART">     0</i>
    <i type="int" name="ICHARG">     2</i>
    <i type="int" name="INIWAV">     1</i>
   </separator>
   <separator name="electronic spin" >
    <i type="int" name="ISPIN">     1</i>
    <i type="logical" name="LNONCOLLINEAR"> F  </i>
    <v name="MAGMOM">      1.00000000</v>
    <i name="NUPDOWN">     -1.00000000</i>
    <i type="logical" name="LSORBIT"> F  </i>
    <v name="SAXIS">      0.00000000      0.00000000      1.00000000</v>
    <i type="logical" name="LSPIRAL"> F  </i>
    <v name="QSPIRAL">      0.00000000      0.00000000      0.00000000</v>
    <i type="logical" name="LZEROZ"> F  </i>
   </separator>
   <separator name="electronic exchange-correlation" >
    <i type="logical" name="LASPH"> F  </i>
    <i type="logical" name="LMETAGGA"> F  </i>
   </separator>
   <separator name="electronic convergence" >
    <i type="int" name="NELM">    60</i>
    <i type="int" name="NELMDL">     0</i>
    <i type="int" name="NELMIN">     2</i>
    <i name="ENINI">    274.00000000</i>
    <separator name="electronic convergence detail" >
     <i type="logical" name="LDIAG"> T  </i>
     <i type="logical" name="LSUBROT"> F  </i>
     <i name="WEIMIN">      0.00100000</i>
     <i name="EBREAK">      0.00000250</i>
     <i name="DEPER">      0.30000000</i>
     <i type="int" name="NRMM">     4</i>
     <i name="TIME">      0.40000000</i>
    </separator>
   </separator>
   <separator name="electronic mixer" >
    <i name="AMIX">      0.40000000</i>
    <i name="BMIX">      1.00000000</i>
    <i name="AMIN">      0.10000000</i>
    <i name="AMIX_MAG">      1.60000000</i>
    <i name="BMIX_MAG">      1.00000000</i>
    <separator name="electronic mixer details" >
     <i type="int" name="IMIX">     4</i>
     <i type="logical" name="MIXFIRST"> F  </i>
     <i type="int" name="MAXMIX">   -45</i>
     <i name="WC">    100.00000000</i>
     <i type="int" name="INIMIX">     1</i>
     <i type="int" name="MIXPRE">     1</i>
     <i type="int" name="MREMOVE">     5</i>
    </separator>
   </separator>
   <separator name="electronic dipolcorrection" >
    <i type="logical" name="LDIPOL"> F  </i>
    <i type="logical" name="LMONO"> F  </i>
    <i type="int" name="IDIPOL">     0</i>
    <i name="EPSILON">      1.00000000</i>
    <v name="DIPOL">   -100.00000000   -100.00000000   -100.00000000</v>
    <i name="EFIELD">      0.00000000</i>
   </separator>
  </separator>
  <separator name="grids" >
   <i type="int" name="NGX">    24</i>
   <i type="int" name="NGY">    24</i>
   <i type="int" name="NGZ">    24</i>
   <i type="int" name="NGXF">    48</i>
   <i type="int" name="NGYF">    48</i>
   <i type="int" name="NGZF">    48</i>
   <i type="logical" name="ADDGRID"> F  </i>
  </separator>
  <separator name="ionic" >
   <i type="int" name="NSW">   200</i>
   <i type="int" name="IBRION">     2</i>
   <i type="int" name="ISIF">     0</i>
   <i name="PSTRESS">      0.00000000</i>
   <i name="EDIFFG">     -0.00500000</i>
   <i type="int" name="NFREE">     1</i>
   <i name="POTIM">      0.10000000</i>
   <i name="SMASS">     -3.00000000</i>
   <i name="SCALEE">      1.00000000</i>
  </separator>
  <separator name="ionic md" >
   <i name="TEBEG">      0.00010000</i>
   <i name="TEEND">      0.00010000</i>
   <i type="int" name="NBLOCK">     1</i>
   <i type="int" name="KBLOCK">   200</i>
   <i type="int" name="NPACO">   256</i>
   <i name="APACO">     16.00000000</i>
  </separator>
  <separator name="symmetry" >
   <i type="int" name="ISYM">     0</i>
   <i name="SYMPREC">      0.00001000</i>
  </separator>
  <separator name="dos" >
   <i type="logical" name="LORBIT"> F  </i>
   <v name="RWIGS">     -1.00000000</v>
   <i type="int" name="NEDOS">   301</i>
   <i name="EMIN">     10.00000000</i>
   <i name="EMAX">    -10.00000000</i>
   <i name="EFERMI">      0.00000000</i>
  </separator>
  <separator name="writing" >
   <i type="int" name="NWRITE">     2</i>
   <i type="logical" name="LWAVE"> F  </i>
   <i type="logical" name="LCHARG"> F  </i>
   <i type="logical" name="LPARD"> F  </i>
   <i type="logical" name="LVTOT"> F  </i>
   <i type="logical" name="LVHAR"> F  </i>
   <i type="logical" name="LELF"> F  </i>
   <i type="logical" name="LOPTICS"> F  </i>
   <v name="STM">      0.00000000      0.00000000      0.00000000      0.00000000      0.00000000      0.00000000      0.00000000</v>
  </separator>
  <separator name="performance" >
   <i type="int" name="NPAR">     2</i>
   <i type="int" name="NSIM">     4</i>
   <i type="int" name="NBLK">    -1</i>
   <i type="logical" name="LPLANE"> T  </i>
   <i type="logical" name="LSCALAPACK"> T  </i>
   <i type="logical" name="LSCAAWARE"> F  </i>
   <i type="logical" name="LSCALU"> F  </i>
   <i type="logical" name="LASYNC"> F  </i>
   <i type="logical" name="LORBITALREAL"> F  </i>
  </separator>
  <separator name="miscellaneous" >
   <i type="int" name="IDIOT">     3</i>
   <i type="logical" name="LMUSIC"> F  </i>
   <v name="POMASS">    106.42000000</v>
   <v name="DARWINR">      0.00000000</v>
   <v name="DARWINV">      1.00000000</v>
   <i type="logical" name="LCORR"> T  </i>
  </separator>
  <i type="logical" name="GGA_COMPAT"> T  </i>
  <i type="logical" name="LBERRY"> F  </i>
  <i type="int" name="ICORELEVEL">     0</i>
  <i type="logical" name="LDAU"> F  </i>
  <i type="int" name="I_CONSTRAINED_M">     0</i>
  <separator name="electronic exchange-correlation" >
   <i type="string" name="GGA">--</i>
   <i type="int" name="VOSKOWN">     0</i>
   <i type="logical" name="LHFCALC"> F  </i>
   <i type="string" name="PRECFOCK"></i>
   <i type="logical" name="LSYMGRAD"> F  </i>
   <i type="logical" name="LHFONE"> F  </i>
   <i type="logical" name="LRHFCALC"> F  </i>
   <i type="logical" name="LTHOMAS"> F  </i>
   <i type="logical" name="LMODELHF"> F  </i>
   <i name="ENCUT4O">     -1.00000000</i>
   <i type="int" name="EXXOEP">     0</i>
   <i type="int" name="FOURORBIT">     0</i>
   <i name="AEXX">      0.00000000</i>
   <i name="HFALPHA">      0.00000000</i>
   <i name="MCALPHA">      0.00000000</i>
   <i name="ALDAX">      1.00000000</i>
   <i name="AGGAX">      1.00000000</i>
   <i name="ALDAC">      1.00000000</i>
   <i name="AGGAC">      1.00000000</i>
   <i type="int" name="NKREDX">     1</i>
   <i type="int" name="NKREDY">     1</i>
   <i type="int" name="NKREDZ">     1</i>
   <i type="logical" name="SHIFTRED"> F  </i>
   <i type="logical" name="ODDONLY"> F  </i>
   <i type="logical" name="EVENONLY"> F  </i>
   <i type="int" name="LMAXFOCK">     0</i>
   <i type="int" name="NMAXFOCKAE">     0</i>
   <i type="logical" name="LFOCKAEDFT"> F  </i>
   <i name="HFSCREEN">      0.00000000</i>
   <i name="HFSCREENC">      0.00000000</i>
   <i type="int" name="NBANDSGWLOW">     0</i>
  </separator>
  <separator name="vdW DFT" >
   <i type="logical" name="LUSE_VDW"> F  </i>
   <i name="Zab_VDW">     -0.84910000</i>
   <i name="PARAM1">      0.12340000</i>
   <i name="PARAM2">      1.00000000</i>
   <i name="PARAM3">      0.00000000</i>
  </separator>
  <separator name="model GW" >
   <i type="int" name="MODEL_GW">     0</i>
   <i name="MODEL_EPS0">    129.60000000</i>
   <i name="MODEL_ALPHA">      1.00000000</i>
  </separator>
  <separator name="linear response parameters" >
   <i type="logical" name="LEPSILON"> F  </i>
   <i type="logical" name="LRPA"> F  </i>
   <i type="logical" name="LNABLA"> F  </i>
   <i type="logical" name="LVEL"> F  </i>
   <i type="int" name="KINTER">     0</i>
   <i name="CSHIFT">      0.10000000</i>
   <i name="OMEGAMAX">     -1.00000000</i>
   <i name="DEG_THRESHOLD">      0.00200000</i>
  </separator>
  <separator name="orbital magnetization" >
   <i type="logical" name="NUCIND"> F  </i>
   <v name="MAGPOS">      0.00000000      0.00000000      0.00000000</v>
   <i type="logical" name="LNICSALL"> T  </i>
   <i type="logical" name="ORBITALMAG"> F  </i>
   <i type="logical" name="LMAGBLOCH"> F  </i>
   <i type="logical" name="LCHIMAG"> F  </i>
   <i type="logical" name="LGAUGE"> T  </i>
   <i type="int" name="MAGATOM">     0</i>
   <v name="MAGDIPOL">      0.00000000      0.00000000      0.00000000</v>
   <v name="AVECCONST">      0.00000000      0.00000000      0.00000000</v>
  </separator>
  <separator name="response functions" >
   <i type="logical" name="LADDER"> F  </i>
   <i type="logical" name="LFXC"> F  </i>
   <i type="logical" name="LHARTREE"> T  </i>
   <i type="int" name="IBSE">     0</i>
   <v type="int" name="KPOINT">    -1     0     0     0</v>
   <i type="logical" name="LTCTE"> F  </i>
   <i type="logical" name="LTETE"> F  </i>
   <i type="logical" name="LTRIPLET"> F  </i>
   <i type="logical" name="LFXCEPS"> F  </i>
   <i type="logical" name="LFXHEG"> F  </i>
   <i type="int" name="NATURALO">     0</i>
   <i type="logical" name="L2ORDER"> F  </i>
   <i type="logical" name="LUSEW"> F  </i>
   <i name="ENCUTGW">     -2.00000000</i>
   <i name="ENCUTGWSOFT">     -2.00000000</i>
   <i name="ENCUTLF">     -1.00000000</i>
   <i type="int" name="LMAXMP2">    -1</i>
   <i name="SCISSOR">      0.00000000</i>
   <i type="int" name="NOMEGA">     0</i>
   <i type="int" name="NOMEGAR">     0</i>
   <i type="int" name="NBANDSGW">    -1</i>
   <i type="int" name="NBANDSO">    -1</i>
   <i type="int" name="NBANDSV">    -1</i>
   <i type="int" name="NELM">     1</i>
   <i type="int" name="NELMHF">     1</i>
   <i type="int" name="DIM">     3</i>
   <i type="int" name="ANTIRES">     0</i>
   <i name="OMEGAMAX">    -30.00000000</i>
   <i name="OMEGAMIN">    -30.00000000</i>
   <i name="OMEGATL">   -200.00000000</i>
   <i type="int" name="OMEGAGRID">     0</i>
   <i name="CSHIFT">     -0.10000000</i>
   <i type="logical" name="SELFENERGY"> F  </i>
   <i type="logical" name="LSPECTRAL"> F  </i>
   <i type="logical" name="LSPECTRALGW"> F  </i>
   <i type="logical" name="LSINGLES"> F  </i>
   <i type="logical" name="LFERMIGW"> F  </i>
   <i type="logical" name="ODDONLYGW"> F  </i>
   <i type="logical" name="EVENONLYGW"> F  </i>
   <i type="int" name="NKREDLFX">     1</i>
   <i type="int" name="NKREDLFY">     1</i>
   <i type="int" name="NKREDLFZ">     1</i>
   <i type="int" name="MAXMEM">  1800</i>
   <i type="int" name="TELESCOPE">     0</i>
   <i type="int" name="TAUPAR">     1</i>
   <i type="int" name="OMEGAPAR">    -1</i>
   <i name="LAMBDA">      1.00000000</i>
  </separator>
  <separator name="External order field" >
   <i name="OFIELD_KAPPA">      0.00000000</i>
   <v name="OFIELD_K">      0.00000000      0.00000000      0.00000000</v>
   <i name="OFIELD_Q6_NEAR">      0.00000000</i>
   <i name="OFIELD_Q6_FAR">      0.00000000</i>
   <i name="OFIELD_A">      0.00000000</i>
  </separator>
  <separator name="solvation model" >
   <i type="logical" name="LSOL"> F  </i>
  </separator>
 </parameters>
 <atominfo>
  <atoms>       1 </atoms>
  <types>       1 </types>
  <array name="atoms" >
   <dimension dim="1">ion</dimension>
   <field type="string">element</field>
   <field type="int">atomtype</field>
   <set>
    <rc><c>Pd</c><c>   1</c></rc>
   </set>
  </array>
  <array name="atomtypes" >
   <dimension dim="1">type</dimension>
   <field type="int">atomspertype</field>
   <field type="string">element</field>
   <field>mass</field>
   <field>valence</field>
   <field type="string">pseudopotential</field>
   <set>
    <rc><c>   1</c><c>Pd</c><c>    106.42000000</c><c>     10.00000000</c><c>  PAW Pd                                </c></rc>
   </set>
  </array>
 </atominfo>
 <structure name="initialpos" >
  <crystal>
   <varray name="basis" >
    <v>       6.00000000       0.00000000       0.00000000 </v>
    <v>       0.00000000       6.00000000       0.00000000 </v>
    <v>       0.00000000       0.00000000       6.00000000 </v>
   </varray>
   <i name="volume">    216.00000000 </i>
   <varray name="rec_basis" >
    <v>       0.16666667       0.00000000       0.00000000 </v>
    <v>       0.00000000       0.16666667       0.00000000 </v>
    <v>       0.00000000       0.00000000       0.16666667 </v>
   </varray>
  </crystal>
  <varray name="positions" >
   <v>       0.50000000       0.50000000       0.50000000 </v>
  </varray>
  <varray name="selective"  type="logical" >
   <v type="logical" >  T  T  T </v>
  </varray>
  <nose>
   <v>      -3.00000000       0.00000000       0.00010000       0.00010000 </v>
  </nose>
 </structure>
 <calculation>
  <scstep>
   <time name="diag">    0.00    0.00</time>
   <time name="diis">    0.00    0.00</time>
   <time name="orth">    0.00    0.00</time>
   <time name="total">    0.04    0.04</time>
   <energy>
    <i name="alphaZ">      6.28696389 </i>
    <i name="ewald">   -340.47066676 </i>
    <i name="hartreedc">   -449.99561473 </i>
    <i name="XCdc">    -31.92868499 </i>
    <i name="pawpsdc">    677.48627982 </i>
    <i name="pawaedc">   -615.11396887 </i>
    <i name="eentropy">      0.01807821 </i>
    <i name="bandstr">     25.62207365 </i>
    <i name="atom">    810.72239932 </i>
    <i name="e_fr_energy">     82.62685954 </i>
    <i name="e_wo_entrp">     82.60878133 </i>
    <i name="e_0_energy">     82.62083347 </i>
   </energy>
  </scstep>
  <scstep>
   <time name="diag">    0.00    0.00</time>
   <time name="diis">    0.00    0.00</time>
   <time name="orth">    0.00    0.00</time>
   <time name="total">    0.01    0.01</time>
   <energy>
    <i name="e_fr_energy">     52.70376515 </i>
    <i name="e_wo_entrp">     52.69216905 </i>
    <i name="e_0_energy">     52.69989979 </i>
   </energy>
  </scstep>
  <scstep>
   <time name="diag">    0.00    0.00</time>
   <time name="diis">    0.00    0.00</time>
   <time name="orth">    0.00    0.00</time>
   <time name="total">    0.00    0.01</time>
   <energy>
    <i name="e_fr_energy">     22.68825353 </i>
    <i name="e_wo_entrp">     22.65606430 </i>
    <i name="e_0_energy">     22.67752378 </i>
   </energy>
  </scstep>
  <scstep>
   <time name="diag">    0.00    0.00</time>
   <time name="diis">    0.00    0.00</time>
   <time name="orth">    0.00    0.00</time>
   <time name="total">    0.00    0.01</time>
   <energy>
    <i name="e_fr_energy">      7.21160171 </i>
    <i name="e_wo_entrp">      7.19423846 </i>
    <i name="e_0_energy">      7.20581396 </i>
   </energy>
  </scstep>
  <scstep>
   <time name="diag">    0.00    0.00</time>
   <time name="diis">    0.00    0.00</time>
   <time name="orth">    0.00    0.00</time>
   <time name="total">    0.01    0.01</time>
   <energy>
    <i name="e_fr_energy">      2.05332181 </i>
    <i name="e_wo_entrp">      2.02233927 </i>
    <i name="e_0_energy">      2.04299430 </i>
   </energy>
  </scstep>
  <scstep>
   <time name="diag">    0.00    0.00</time>
   <time name="diis">    0.00    0.00</time>
   <time name="orth">    0.00    0.00</time>
   <time name="total">    0.00    0.01</time>
   <energy>
    <i name="e_fr_energy">     -0.91451444 </i>
    <i name="e_wo_entrp">     -0.92611048 </i>
    <i name="e_0_energy">     -0.91837979 </i>
   </energy>
  </scstep>
  <scstep>
   <time name="diag">    0.00    0.00</time>
   <time name="diis">    0.00    0.00</time>
   <time name="orth">    0.00    0.00</time>
   <time name="total">    0.00    0.01</time>
   <energy>
    <i name="e_fr_energy">     -2.01641387 </i>
    <i name="e_wo_entrp">     -2.09155356 </i>
    <i name="e_0_energy">     -2.04146043 </i>
   </energy>
  </scstep>
  <scstep>
   <time name="diag">    0.00    0.00</time>
   <time name="diis">    0.00    0.00</time>
   <time name="orth">    0.00    0.00</time>
   <time name="total">    0.00    0.01</time>
   <energy>
    <i name="e_fr_energy">     -2.25109195 </i>
    <i name="e_wo_entrp">     -2.31152134 </i>
    <i name="e_0_energy">     -2.27123508 </i>
   </energy>
  </scstep>
  <scstep>
   <time name="diag">    0.00    0.00</time>
   <time name="diis">    0.01    0.01</time>
   <time name="orth">    0.00    0.00</time>
   <time name="total">    0.01    0.01</time>
   <energy>
    <i name="e_fr_energy">     -2.33455210 </i>
    <i name="e_wo_entrp">     -2.39294088 </i>
    <i name="e_0_energy">     -2.35401503 </i>
   </energy>
  </scstep>
  <scstep>
   <time name="diag">    0.00    0.00</time>
   <time name="diis">    0.00    0.00</time>
   <time name="orth">    0.00    0.00</time>
   <time name="total">    0.01    0.01</time>
   <energy>
    <i name="e_fr_energy">     -2.33568003 </i>
    <i name="e_wo_entrp">     -2.39410100 </i>
    <i name="e_0_energy">     -2.35515369 </i>
   </energy>
  </scstep>
  <scstep>
   <time name="diag">    0.00    0.00</time>
   <time name="diis">    0.00    0.00</time>
   <time name="orth">    0.00    0.00</time>
   <time name="total">    0.01    0.01</time>
   <energy>
    <i name="e_fr_energy">     -2.33570668 </i>
    <i name="e_wo_entrp">     -2.39412779 </i>
    <i name="e_0_energy">     -2.35518039 </i>
   </energy>
  </scstep>
  <scstep>
   <time name="diag">    0.00    0.00</time>
   <time name="diis">    0.00    0.00</time>
   <time name="orth">    0.00    0.00</time>
   <time name="total">    0.01    0.01</time>
   <energy>
    <i name="e_fr_energy">     -2.33570903 </i>
    <i name="e_wo_entrp">     -2.39413015 </i>
    <i name="e_0_energy">     -2.35518274 </i>
   </energy>
  </scstep>
  <scstep>
   <time name="diag">    0.00    0.00</time>
   <time name="diis">    0.00    0.00</time>
   <time name="orth">    0.00    0.00</time>
   <time name="total">    0.04    0.04</time>
   <energy>
    <i name="e_fr_energy">     -1.51522618 </i>
    <i name="e_wo_entrp">     -1.60113134 </i>
    <i name="e_0_energy">     -1.54386123 </i>
   </energy>
  </scstep>
  <scstep>
   <time name="diag">    0.00    0.00</time>
   <time name="diis">    0.01    0.00</time>
   <time name="orth">    0.00    0.00</time>
   <time name="total">    0.04    0.04</time>
   <energy>
    <i name="e_fr_energy">     -1.84714898 </i>
    <i name="e_wo_entrp">     -1.68506776 </i>
    <i name="e_0_energy">     -1.79312191 </i>
   </energy>
  </scstep>
  <scstep>
   <time name="diag">    0.00    0.00</time>
   <time name="diis">    0.00    0.00</time>
   <time name="orth">    0.00    0.00</time>
   <time name="total">    0.04    0.04</time>
   <energy>
    <i name="e_fr_energy">     -1.67669361 </i>
    <i name="e_wo_entrp">     -1.73485886 </i>
    <i name="e_0_energy">     -1.69608203 </i>
   </energy>
  </scstep>
  <scstep>
   <time name="diag">    0.00    0.00</time>
   <time name="diis">    0.00    0.00</time>
   <time name="orth">    0.00    0.00</time>
   <time name="total">    0.04    0.04</time>
   <energy>
    <i name="e_fr_energy">     -1.70041324 </i>
    <i name="e_wo_entrp">     -1.76058960 </i>
    <i name="e_0_energy">     -1.72047202 </i>
   </energy>
  </scstep>
  <scstep>
   <time name="diag">    0.00    0.00</time>
   <time name="diis">    0.00    0.00</time>
   <time name="orth">    0.00    0.00</time>
   <time name="total">    0.04    0.04</time>
   <energy>
    <i name="e_fr_energy">     -1.65681242 </i>
    <i name="e_wo_entrp">     -1.71541402 </i>
    <i name="e_0_energy">     -1.67634629 </i>
   </energy>
  </scstep>
  <scstep>
   <time name="diag">    0.00    0.00</time>
   <time name="diis">    0.00    0.00</time>
   <time name="orth">    0.00    0.00</time>
   <time name="total">    0.04    0.04</time>
   <energy>
    <i name="e_fr_energy">     -1.60233309 </i>
    <i name="e_wo_entrp">     -1.66162669 </i>
    <i name="e_0_energy">     -1.62209763 </i>
   </energy>
  </scstep>
  <scstep>
   <time name="diag">    0.00    0.00</time>
   <time name="diis">    0.00    0.00</time>
   <time name="orth">    0.00    0.00</time>
   <time name="total">    0.04    0.04</time>
   <energy>
    <i name="e_fr_energy">     -1.62702509 </i>
    <i name="e_wo_entrp">     -1.68599249 </i>
    <i name="e_0_energy">     -1.64668089 </i>
   </energy>
  </scstep>
  <scstep>
   <time name="diag">    0.00    0.00</time>
   <time name="diis">    0.00    0.00</time>
   <time name="orth">    0.00    0.00</time>
   <time name="total">    0.04    0.04</time>
   <energy>
    <i name="e_fr_energy">     -1.55000208 </i>
    <i name="e_wo_entrp">     -1.61100463 </i>
    <i name="e_0_energy">     -1.57033627 </i>
   </energy>
  </scstep>
  <scstep>
   <time name="diag">    0.00    0.00</time>
   <time name="diis">    0.01    0.00</time>
   <time name="orth">    0.00    0.00</time>
   <time name="total">    0.04    0.04</time>
   <energy>
    <i name="e_fr_energy">     -1.52425097 </i>
    <i name="e_wo_entrp">     -1.59682462 </i>
    <i name="e_0_energy">     -1.54844219 </i>
   </energy>
  </scstep>
  <scstep>
   <time name="diag">    0.00    0.00</time>
   <time name="diis">    0.00    0.00</time>
   <time name="orth">    0.00    0.00</time>
   <time name="total">    0.04    0.04</time>
   <energy>
    <i name="e_fr_energy">     -1.50351625 </i>
    <i name="e_wo_entrp">     -1.59875629 </i>
    <i name="e_0_energy">     -1.53526293 </i>
   </energy>
  </scstep>
  <scstep>
   <time name="diag">    0.00    0.00</time>
   <time name="diis">    0.01    0.00</time>
   <time name="orth">    0.00    0.00</time>
   <time name="total">    0.04    0.04</time>
   <energy>
    <i name="e_fr_energy">     -1.48713223 </i>
    <i name="e_wo_entrp">     -1.51552299 </i>
    <i name="e_0_energy">     -1.49659582 </i>
   </energy>
  </scstep>
  <scstep>
   <time name="diag">    0.00    0.00</time>
   <time name="diis">    0.00    0.00</time>
   <time name="orth">    0.00    0.00</time>
   <time name="total">    0.04    0.04</time>
   <energy>
    <i name="e_fr_energy">     -1.50520151 </i>
    <i name="e_wo_entrp">     -1.59730022 </i>
    <i name="e_0_energy">     -1.53590108 </i>
   </energy>
  </scstep>
  <scstep>
   <time name="diag">    0.00    0.00</time>
   <time name="diis">    0.00    0.00</time>
   <time name="orth">    0.00    0.00</time>
   <time name="total">    0.04    0.04</time>
   <energy>
    <i name="e_fr_energy">     -1.48513386 </i>
    <i name="e_wo_entrp">     -1.54354771 </i>
    <i name="e_0_energy">     -1.50460514 </i>
   </energy>
  </scstep>
  <scstep>
   <time name="diag">    0.00    0.00</time>
   <time name="diis">    0.00    0.00</time>
   <time name="orth">    0.00    0.00</time>
   <time name="total">    0.04    0.04</time>
   <energy>
    <i name="e_fr_energy">     -1.49075812 </i>
    <i name="e_wo_entrp">     -1.48653606 </i>
    <i name="e_0_energy">     -1.48935076 </i>
   </energy>
  </scstep>
  <scstep>
   <time name="diag">    0.00    0.00</time>
   <time name="diis">    0.00    0.00</time>
   <time name="orth">    0.00    0.00</time>
   <time name="total">    0.04    0.04</time>
   <energy>
    <i name="e_fr_energy">     -1.49769122 </i>
    <i name="e_wo_entrp">     -1.59407108 </i>
    <i name="e_0_energy">     -1.52981784 </i>
   </energy>
  </scstep>
  <scstep>
   <time name="diag">    0.00    0.00</time>
   <time name="diis">    0.00    0.00</time>
   <time name="orth">    0.00    0.00</time>
   <time name="total">    0.04    0.04</time>
   <energy>
    <i name="e_fr_energy">     -1.48496144 </i>
    <i name="e_wo_entrp">     -1.52456469 </i>
    <i name="e_0_energy">     -1.49816252 </i>
   </energy>
  </scstep>
  <scstep>
   <time name="diag">    0.00    0.00</time>
   <time name="diis">    0.00    0.01</time>
   <time name="orth">    0.00    0.00</time>
   <time name="total">    0.04    0.05</time>
   <energy>
    <i name="e_fr_energy">     -1.48412767 </i>
    <i name="e_wo_entrp">     -1.53047393 </i>
    <i name="e_0_energy">     -1.49957642 </i>
   </energy>
  </scstep>
  <scstep>
   <time name="diag">    0.00    0.00</time>
   <time name="diis">    0.00    0.00</time>
   <time name="orth">    0.00    0.00</time>
   <time name="total">    0.03    0.04</time>
   <energy>
    <i name="alphaZ">      6.28696389 </i>
    <i name="ewald">   -340.47066676 </i>
    <i name="hartreedc">   -475.75281938 </i>
    <i name="XCdc">    -31.05468038 </i>
    <i name="pawpsdc">    721.00591284 </i>
    <i name="pawaedc">   -655.39720593 </i>
    <i name="eentropy">      0.05844747 </i>
    <i name="bandstr">    -36.88250615 </i>
    <i name="atom">    810.72239932 </i>
    <i name="e_fr_energy">     -1.48415507 </i>
    <i name="e_wo_entrp">     -1.54260254 </i>
    <i name="e_0_energy">     -1.50363756 </i>
   </energy>
  </scstep>
  <structure>
   <crystal>
    <varray name="basis" >
     <v>       6.00000000       0.00000000       0.00000000 </v>
     <v>       0.00000000       6.00000000       0.00000000 </v>
     <v>       0.00000000       0.00000000       6.00000000 </v>
    </varray>
    <i name="volume">    216.00000000 </i>
    <varray name="rec_basis" >
     <v>       0.16666667       0.00000000       0.00000000 </v>
     <v>       0.00000000       0.16666667       0.00000000 </v>
     <v>       0.00000000       0.00000000       0.16666667 </v>
    </varray>
   </crystal>
   <varray name="positions" >
    <v>       0.50000000       0.50000000       0.50000000 </v>
   </varray>
  </structure>
  <varray name="forces" >
   <v>       0.00000209       0.00000970      -0.00000123 </v>
  </varray>
  <energy>
   <i name="e_fr_energy">     -1.48415507 </i>
   <i name="e_wo_entrp">     -1.50363756 </i>
   <i name="e_0_energy">      0.05844747 </i>
  </energy>
  <time name="totalsc">    0.89    0.93</time>
  <eigenvalues>
   <array>
    <dimension dim="1">band</dimension>
    <dimension dim="2">kpoint</dimension>
    <dimension dim="3">spin</dimension>
    <field>eigene</field>
    <field>occ</field>
    <set>
     <set comment="spin 1">
      <set comment="kpoint 1">
       <r>   -3.7140    1.0214 </r>
       <r>   -3.7140    1.0214 </r>
       <r>   -3.6725    0.9791 </r>
       <r>   -3.6725    0.9790 </r>
       <r>   -3.6725    0.9790 </r>
       <r>   -3.3680    0.0201 </r>
       <r>    1.0954    0.0000 </r>
       <r>    1.2759    0.0000 </r>
       <r>    1.2759    0.0000 </r>
       <r>    1.2759    0.0000 </r>
      </set>
     </set>
    </set>
   </array>
  </eigenvalues>
  <separator name="orbital magnetization" >
   <v name="MAGDIPOLOUT">      0.00000000      0.00000000      0.00000000</v>
  </separator>
  <dos>
   <i name="efermi">     -3.52054777 </i>
   <total>
    <array>
     <dimension dim="1">gridpoints</dimension>
     <dimension dim="2">spin</dimension>
     <field>energy</field>
     <field>total</field>
     <field>integrated</field>
     <set>
      <set comment="spin 1">
       <r>    -5.7140     0.0000     0.0000 </r>
       <r>    -5.6841     0.0000     0.0000 </r>
       <r>    -5.6541     0.0000     0.0000 </r>
       <r>    -5.6241     0.0000     0.0000 </r>
       <r>    -5.5942     0.0000     0.0000 </r>
       <r>    -5.5642     0.0000     0.0000 </r>
       <r>    -5.5342     0.0000     0.0000 </r>
       <r>    -5.5043     0.0000     0.0000 </r>
       <r>    -5.4743     0.0000     0.0000 </r>
       <r>    -5.4443     0.0000     0.0000 </r>
       <r>    -5.4144     0.0000     0.0000 </r>
       <r>    -5.3844     0.0000     0.0000 </r>
       <r>    -5.3544     0.0000     0.0000 </r>
       <r>    -5.3245     0.0000     0.0000 </r>
       <r>    -5.2945     0.0000     0.0000 </r>
       <r>    -5.2645     0.0000     0.0000 </r>
       <r>    -5.2346     0.0000     0.0000 </r>
       <r>    -5.2046     0.0000     0.0000 </r>
       <r>    -5.1746     0.0000     0.0000 </r>
       <r>    -5.1447     0.0000     0.0000 </r>
       <r>    -5.1147     0.0000     0.0000 </r>
       <r>    -5.0847     0.0000     0.0000 </r>
       <r>    -5.0548     0.0000     0.0000 </r>
       <r>    -5.0248     0.0000     0.0000 </r>
       <r>    -4.9948     0.0000     0.0000 </r>
       <r>    -4.9649     0.0000     0.0000 </r>
       <r>    -4.9349     0.0000     0.0000 </r>
       <r>    -4.9049     0.0000     0.0000 </r>
       <r>    -4.8750     0.0000     0.0000 </r>
       <r>    -4.8450     0.0000     0.0000 </r>
       <r>    -4.8150     0.0000     0.0000 </r>
       <r>    -4.7851     0.0000     0.0000 </r>
       <r>    -4.7551     0.0000     0.0000 </r>
       <r>    -4.7251     0.0000     0.0000 </r>
       <r>    -4.6952     0.0000     0.0000 </r>
       <r>    -4.6652     0.0000     0.0000 </r>
       <r>    -4.6352     0.0000     0.0000 </r>
       <r>    -4.6053     0.0000     0.0000 </r>
       <r>    -4.5753     0.0000     0.0000 </r>
       <r>    -4.5453     0.0000     0.0000 </r>
       <r>    -4.5154     0.0000     0.0000 </r>
       <r>    -4.4854     0.0000     0.0000 </r>
       <r>    -4.4554    -0.0001     0.0000 </r>
       <r>    -4.4255    -0.0003     0.0000 </r>
       <r>    -4.3955    -0.0009     0.0000 </r>
       <r>    -4.3655    -0.0024    -0.0001 </r>
       <r>    -4.3356    -0.0058    -0.0003 </r>
       <r>    -4.3056    -0.0133    -0.0007 </r>
       <r>    -4.2756    -0.0292    -0.0016 </r>
       <r>    -4.2457    -0.0607    -0.0034 </r>
       <r>    -4.2157    -0.1197    -0.0070 </r>
       <r>    -4.1857    -0.2231    -0.0137 </r>
       <r>    -4.1558    -0.3921    -0.0254 </r>
       <r>    -4.1258    -0.6475    -0.0448 </r>
       <r>    -4.0958    -0.9990    -0.0747 </r>
       <r>    -4.0659    -1.4274    -0.1175 </r>
       <r>    -4.0359    -1.8609    -0.1733 </r>
       <r>    -4.0059    -2.1502    -0.2377 </r>
       <r>    -3.9760    -2.0541    -0.2993 </r>
       <r>    -3.9460    -1.2490    -0.3367 </r>
       <r>    -3.9160     0.6243    -0.3180 </r>
       <r>    -3.8861     3.8732    -0.2019 </r>
       <r>    -3.8561     8.6374     0.0569 </r>
       <r>    -3.8261    14.7759     0.4997 </r>
       <r>    -3.7962    21.8017     1.1530 </r>
       <r>    -3.7662    28.9049     2.0192 </r>
       <r>    -3.7362    35.0818     3.0705 </r>
       <r>    -3.7063    39.3512     4.2497 </r>
       <r>    -3.6763    40.9997     5.4783 </r>
       <r>    -3.6463    39.7782     6.6703 </r>
       <r>    -3.6164    35.9805     7.7485 </r>
       <r>    -3.5864    30.3720     8.6587 </r>
       <r>    -3.5564    23.9896     9.3776 </r>
       <r>    -3.5265    17.8778     9.9133 </r>
       <r>    -3.4965    12.8448    10.2982 </r>
       <r>    -3.4665     9.3100    10.5772 </r>
       <r>    -3.4366     7.2764    10.7952 </r>
       <r>    -3.4066     6.4184    10.9876 </r>
       <r>    -3.3766     6.2400    11.1746 </r>
       <r>    -3.3467     6.2439    11.3617 </r>
       <r>    -3.3167     6.0618    11.5433 </r>
       <r>    -3.2867     5.5162    11.7086 </r>
       <r>    -3.2568     4.6132    11.8469 </r>
       <r>    -3.2268     3.4857    11.9513 </r>
       <r>    -3.1968     2.3177    12.0208 </r>
       <r>    -3.1669     1.2757    12.0590 </r>
       <r>    -3.1369     0.4671    12.0730 </r>
       <r>    -3.1069    -0.0717    12.0709 </r>
       <r>    -3.0770    -0.3634    12.0600 </r>
       <r>    -3.0470    -0.4659    12.0460 </r>
       <r>    -3.0170    -0.4475    12.0326 </r>
       <r>    -2.9871    -0.3686    12.0216 </r>
       <r>    -2.9571    -0.2726    12.0134 </r>
       <r>    -2.9271    -0.1851    12.0078 </r>
       <r>    -2.8972    -0.1167    12.0043 </r>
       <r>    -2.8672    -0.0688    12.0023 </r>
       <r>    -2.8372    -0.0381    12.0011 </r>
       <r>    -2.8073    -0.0199    12.0005 </r>
       <r>    -2.7773    -0.0099    12.0002 </r>
       <r>    -2.7473    -0.0046    12.0001 </r>
       <r>    -2.7174    -0.0020    12.0000 </r>
       <r>    -2.6874    -0.0009    12.0000 </r>
       <r>    -2.6574    -0.0003    12.0000 </r>
       <r>    -2.6275    -0.0001    12.0000 </r>
       <r>    -2.5975     0.0000    12.0000 </r>
       <r>    -2.5675     0.0000    12.0000 </r>
       <r>    -2.5376     0.0000    12.0000 </r>
       <r>    -2.5076     0.0000    12.0000 </r>
       <r>    -2.4776     0.0000    12.0000 </r>
       <r>    -2.4477     0.0000    12.0000 </r>
       <r>    -2.4177     0.0000    12.0000 </r>
       <r>    -2.3877     0.0000    12.0000 </r>
       <r>    -2.3578     0.0000    12.0000 </r>
       <r>    -2.3278     0.0000    12.0000 </r>
       <r>    -2.2978     0.0000    12.0000 </r>
       <r>    -2.2679     0.0000    12.0000 </r>
       <r>    -2.2379     0.0000    12.0000 </r>
       <r>    -2.2079     0.0000    12.0000 </r>
       <r>    -2.1780     0.0000    12.0000 </r>
       <r>    -2.1480     0.0000    12.0000 </r>
       <r>    -2.1180     0.0000    12.0000 </r>
       <r>    -2.0881     0.0000    12.0000 </r>
       <r>    -2.0581     0.0000    12.0000 </r>
       <r>    -2.0281     0.0000    12.0000 </r>
       <r>    -1.9982     0.0000    12.0000 </r>
       <r>    -1.9682     0.0000    12.0000 </r>
       <r>    -1.9382     0.0000    12.0000 </r>
       <r>    -1.9083     0.0000    12.0000 </r>
       <r>    -1.8783     0.0000    12.0000 </r>
       <r>    -1.8483     0.0000    12.0000 </r>
       <r>    -1.8184     0.0000    12.0000 </r>
       <r>    -1.7884     0.0000    12.0000 </r>
       <r>    -1.7584     0.0000    12.0000 </r>
       <r>    -1.7285     0.0000    12.0000 </r>
       <r>    -1.6985     0.0000    12.0000 </r>
       <r>    -1.6685     0.0000    12.0000 </r>
       <r>    -1.6386     0.0000    12.0000 </r>
       <r>    -1.6086     0.0000    12.0000 </r>
       <r>    -1.5786     0.0000    12.0000 </r>
       <r>    -1.5487     0.0000    12.0000 </r>
       <r>    -1.5187     0.0000    12.0000 </r>
       <r>    -1.4887     0.0000    12.0000 </r>
       <r>    -1.4588     0.0000    12.0000 </r>
       <r>    -1.4288     0.0000    12.0000 </r>
       <r>    -1.3988     0.0000    12.0000 </r>
       <r>    -1.3689     0.0000    12.0000 </r>
       <r>    -1.3389     0.0000    12.0000 </r>
       <r>    -1.3089     0.0000    12.0000 </r>
       <r>    -1.2790     0.0000    12.0000 </r>
       <r>    -1.2490     0.0000    12.0000 </r>
       <r>    -1.2190     0.0000    12.0000 </r>
       <r>    -1.1891     0.0000    12.0000 </r>
       <r>    -1.1591     0.0000    12.0000 </r>
       <r>    -1.1291     0.0000    12.0000 </r>
       <r>    -1.0992     0.0000    12.0000 </r>
       <r>    -1.0692     0.0000    12.0000 </r>
       <r>    -1.0392     0.0000    12.0000 </r>
       <r>    -1.0093     0.0000    12.0000 </r>
       <r>    -0.9793     0.0000    12.0000 </r>
       <r>    -0.9493     0.0000    12.0000 </r>
       <r>    -0.9194     0.0000    12.0000 </r>
       <r>    -0.8894     0.0000    12.0000 </r>
       <r>    -0.8594     0.0000    12.0000 </r>
       <r>    -0.8295     0.0000    12.0000 </r>
       <r>    -0.7995     0.0000    12.0000 </r>
       <r>    -0.7695     0.0000    12.0000 </r>
       <r>    -0.7396     0.0000    12.0000 </r>
       <r>    -0.7096     0.0000    12.0000 </r>
       <r>    -0.6796     0.0000    12.0000 </r>
       <r>    -0.6497     0.0000    12.0000 </r>
       <r>    -0.6197     0.0000    12.0000 </r>
       <r>    -0.5897     0.0000    12.0000 </r>
       <r>    -0.5598     0.0000    12.0000 </r>
       <r>    -0.5298     0.0000    12.0000 </r>
       <r>    -0.4998     0.0000    12.0000 </r>
       <r>    -0.4699     0.0000    12.0000 </r>
       <r>    -0.4399     0.0000    12.0000 </r>
       <r>    -0.4100     0.0000    12.0000 </r>
       <r>    -0.3800     0.0000    12.0000 </r>
       <r>    -0.3500     0.0000    12.0000 </r>
       <r>    -0.3201     0.0000    12.0000 </r>
       <r>    -0.2901     0.0000    12.0000 </r>
       <r>    -0.2601     0.0000    12.0000 </r>
       <r>    -0.2302     0.0000    12.0000 </r>
       <r>    -0.2002     0.0000    12.0000 </r>
       <r>    -0.1702     0.0000    12.0000 </r>
       <r>    -0.1403     0.0000    12.0000 </r>
       <r>    -0.1103     0.0000    12.0000 </r>
       <r>    -0.0803     0.0000    12.0000 </r>
       <r>    -0.0504     0.0000    12.0000 </r>
       <r>    -0.0204     0.0000    12.0000 </r>
       <r>     0.0096     0.0000    12.0000 </r>
       <r>     0.0395     0.0000    12.0000 </r>
       <r>     0.0695     0.0000    12.0000 </r>
       <r>     0.0995     0.0000    12.0000 </r>
       <r>     0.1294     0.0000    12.0000 </r>
       <r>     0.1594     0.0000    12.0000 </r>
       <r>     0.1894     0.0000    12.0000 </r>
       <r>     0.2193     0.0000    12.0000 </r>
       <r>     0.2493     0.0000    12.0000 </r>
       <r>     0.2793     0.0000    12.0000 </r>
       <r>     0.3092     0.0000    12.0000 </r>
       <r>     0.3392     0.0000    12.0000 </r>
       <r>     0.3692    -0.0001    12.0000 </r>
       <r>     0.3991    -0.0002    12.0000 </r>
       <r>     0.4291    -0.0005    12.0000 </r>
       <r>     0.4591    -0.0013    11.9999 </r>
       <r>     0.4890    -0.0031    11.9998 </r>
       <r>     0.5190    -0.0068    11.9996 </r>
       <r>     0.5490    -0.0141    11.9992 </r>
       <r>     0.5789    -0.0280    11.9984 </r>
       <r>     0.6089    -0.0525    11.9968 </r>
       <r>     0.6389    -0.0930    11.9940 </r>
       <r>     0.6688    -0.1554    11.9894 </r>
       <r>     0.6988    -0.2439    11.9821 </r>
       <r>     0.7288    -0.3578    11.9713 </r>
       <r>     0.7587    -0.4873    11.9567 </r>
       <r>     0.7887    -0.6080    11.9385 </r>
       <r>     0.8187    -0.6786    11.9182 </r>
       <r>     0.8486    -0.6401    11.8990 </r>
       <r>     0.8786    -0.4213    11.8864 </r>
       <r>     0.9086     0.0533    11.8880 </r>
       <r>     0.9385     0.8535    11.9135 </r>
       <r>     0.9685     2.0365    11.9746 </r>
       <r>     0.9985     3.6439    12.0838 </r>
       <r>     1.0284     5.7032    12.2547 </r>
       <r>     1.0584     8.2246    12.5011 </r>
       <r>     1.0884    11.1894    12.8364 </r>
       <r>     1.1183    14.5225    13.2716 </r>
       <r>     1.1483    18.0590    13.8128 </r>
       <r>     1.1783    21.5203    14.4577 </r>
       <r>     1.2082    24.5215    15.1925 </r>
       <r>     1.2382    26.6253    15.9904 </r>
       <r>     1.2682    27.4366    16.8126 </r>
       <r>     1.2981    26.7125    17.6130 </r>
       <r>     1.3281    24.4479    18.3457 </r>
       <r>     1.3581    20.9003    18.9720 </r>
       <r>     1.3880    16.5408    19.4676 </r>
       <r>     1.4180    11.9447    19.8256 </r>
       <r>     1.4480     7.6597    20.0551 </r>
       <r>     1.4779     4.0942    20.1778 </r>
       <r>     1.5079     1.4580    20.2215 </r>
       <r>     1.5379    -0.2366    20.2144 </r>
       <r>     1.5678    -1.1259    20.1807 </r>
       <r>     1.5978    -1.4240    20.1380 </r>
       <r>     1.6278    -1.3554    20.0974 </r>
       <r>     1.6577    -1.1087    20.0642 </r>
       <r>     1.6877    -0.8157    20.0397 </r>
       <r>     1.7177    -0.5513    20.0232 </r>
       <r>     1.7476    -0.3463    20.0128 </r>
       <r>     1.7776    -0.2036    20.0067 </r>
       <r>     1.8076    -0.1125    20.0033 </r>
       <r>     1.8375    -0.0587    20.0016 </r>
       <r>     1.8675    -0.0289    20.0007 </r>
       <r>     1.8975    -0.0135    20.0003 </r>
       <r>     1.9274    -0.0060    20.0001 </r>
       <r>     1.9574    -0.0025    20.0000 </r>
       <r>     1.9874    -0.0010    20.0000 </r>
       <r>     2.0173    -0.0004    20.0000 </r>
       <r>     2.0473    -0.0001    20.0000 </r>
       <r>     2.0773     0.0000    20.0000 </r>
       <r>     2.1072     0.0000    20.0000 </r>
       <r>     2.1372     0.0000    20.0000 </r>
       <r>     2.1672     0.0000    20.0000 </r>
       <r>     2.1971     0.0000    20.0000 </r>
       <r>     2.2271     0.0000    20.0000 </r>
       <r>     2.2571     0.0000    20.0000 </r>
       <r>     2.2870     0.0000    20.0000 </r>
       <r>     2.3170     0.0000    20.0000 </r>
       <r>     2.3470     0.0000    20.0000 </r>
       <r>     2.3769     0.0000    20.0000 </r>
       <r>     2.4069     0.0000    20.0000 </r>
       <r>     2.4369     0.0000    20.0000 </r>
       <r>     2.4668     0.0000    20.0000 </r>
       <r>     2.4968     0.0000    20.0000 </r>
       <r>     2.5268     0.0000    20.0000 </r>
       <r>     2.5567     0.0000    20.0000 </r>
       <r>     2.5867     0.0000    20.0000 </r>
       <r>     2.6167     0.0000    20.0000 </r>
       <r>     2.6466     0.0000    20.0000 </r>
       <r>     2.6766     0.0000    20.0000 </r>
       <r>     2.7066     0.0000    20.0000 </r>
       <r>     2.7365     0.0000    20.0000 </r>
       <r>     2.7665     0.0000    20.0000 </r>
       <r>     2.7965     0.0000    20.0000 </r>
       <r>     2.8264     0.0000    20.0000 </r>
       <r>     2.8564     0.0000    20.0000 </r>
       <r>     2.8864     0.0000    20.0000 </r>
       <r>     2.9163     0.0000    20.0000 </r>
       <r>     2.9463     0.0000    20.0000 </r>
       <r>     2.9763     0.0000    20.0000 </r>
       <r>     3.0062     0.0000    20.0000 </r>
       <r>     3.0362     0.0000    20.0000 </r>
       <r>     3.0662     0.0000    20.0000 </r>
       <r>     3.0961     0.0000    20.0000 </r>
       <r>     3.1261     0.0000    20.0000 </r>
       <r>     3.1561     0.0000    20.0000 </r>
       <r>     3.1860     0.0000    20.0000 </r>
       <r>     3.2160     0.0000    20.0000 </r>
       <r>     3.2460     0.0000    20.0000 </r>
       <r>     3.2759     0.0000    20.0000 </r>
      </set>
     </set>
    </array>
   </total>
  </dos>
 </calculation>
 <structure name="finalpos" >
  <crystal>
   <varray name="basis" >
    <v>       6.00000000       0.00000000       0.00000000 </v>
    <v>       0.00000000       6.00000000       0.00000000 </v>
    <v>       0.00000000       0.00000000       6.00000000 </v>
   </varray>
   <i name="volume">    216.00000000 </i>
   <varray name="rec_basis" >
    <v>       0.16666667       0.00000000       0.00000000 </v>
    <v>       0.00000000       0.16666667       0.00000000 </v>
    <v>       0.00000000       0.00000000       0.16666667 </v>
   </varray>
  </crystal>
  <varray name="positions" >
   <v>       0.50000000       0.50000000       0.50000000 </v>
  </varray>
  <varray name="selective"  type="logical" >
   <v type="logical" >  T  T  T </v>
  </varray>
  <nose>
   <v>      -3.00000000       0.00000000       0.00010000       0.00010000 </v>
  </nose>
 </structure>
</modeling>
