Pt cube particle                        
           1
     6.000000    0.000000    0.000000
     0.000000    6.000000    0.000000
     0.000000    0.000000    6.000000
   Pd
   1
Direct configuration=     1
   0.50000000  0.50000000  0.50000000
