  21  21   0   0
  0.2197550E+02  0.3886808E-09  0.3886808E-09  0.3054723E-08  0.5000000E-15
  1.000000000000000E-004
  CAR 
 unknown system                          
     10.64977018    -61.87948163  301     -1.41471232      1.00000000
    -61.879  0.0000E+00  0.0000E+00  0.0000E+00  0.0000E+00
    -61.638  0.0000E+00  0.0000E+00  0.0000E+00  0.0000E+00
    -61.396  0.0000E+00  0.0000E+00  0.0000E+00  0.0000E+00
    -61.154  0.0000E+00  0.0000E+00  0.0000E+00  0.0000E+00
    -60.912  0.0000E+00  0.0000E+00  0.0000E+00  0.0000E+00
    -60.671  0.0000E+00  0.0000E+00  0.0000E+00  0.0000E+00
    -60.429  0.0000E+00  0.0000E+00  0.0000E+00  0.0000E+00
    -60.187  0.0000E+00  0.0000E+00  0.0000E+00  0.0000E+00
    -59.945  0.0000E+00  0.0000E+00  0.0000E+00  0.0000E+00
    -59.704  0.0000E+00  0.0000E+00  0.0000E+00  0.0000E+00
    -59.462  0.0000E+00  0.0000E+00  0.0000E+00  0.0000E+00
    -59.220  0.0000E+00  0.0000E+00  0.0000E+00  0.0000E+00
    -58.978  0.0000E+00  0.0000E+00  0.0000E+00  0.0000E+00
    -58.737  0.2809E-06  0.0000E+00  0.6792E-07  0.0000E+00
    -58.495  0.1122E+00  0.0000E+00  0.2713E-01  0.0000E+00
    -58.253  0.2499E+00  0.0000E+00  0.8754E-01  0.0000E+00
    -58.011  0.1393E+00  0.0000E+00  0.1212E+00  0.0000E+00
    -57.769  0.7288E-05  0.0000E+00  0.1212E+00  0.0000E+00
    -57.528  0.0000E+00  0.0000E+00  0.1212E+00  0.0000E+00
    -57.286  0.0000E+00  0.0000E+00  0.1212E+00  0.0000E+00
    -57.044  0.0000E+00  0.0000E+00  0.1212E+00  0.0000E+00
    -56.802  0.0000E+00  0.0000E+00  0.1212E+00  0.0000E+00
    -56.561  0.0000E+00  0.0000E+00  0.1212E+00  0.0000E+00
    -56.319  0.0000E+00  0.0000E+00  0.1212E+00  0.0000E+00
    -56.077  0.0000E+00  0.0000E+00  0.1212E+00  0.0000E+00
    -55.835  0.0000E+00  0.0000E+00  0.1212E+00  0.0000E+00
    -55.594  0.0000E+00  0.0000E+00  0.1212E+00  0.0000E+00
    -55.352  0.0000E+00  0.0000E+00  0.1212E+00  0.0000E+00
    -55.110  0.0000E+00  0.0000E+00  0.1212E+00  0.0000E+00
    -54.868  0.0000E+00  0.0000E+00  0.1212E+00  0.0000E+00
    -54.627  0.0000E+00  0.0000E+00  0.1212E+00  0.0000E+00
    -54.385  0.0000E+00  0.0000E+00  0.1212E+00  0.0000E+00
    -54.143  0.0000E+00  0.1799E-02  0.1212E+00  0.4350E-03
    -53.901  0.0000E+00  0.3497E+00  0.1212E+00  0.8499E-01
    -53.659  0.0000E+00  0.1495E+00  0.1212E+00  0.1211E+00
    -53.418  0.0000E+00  0.3486E-03  0.1212E+00  0.1212E+00
    -53.176  0.0000E+00  0.0000E+00  0.1212E+00  0.1212E+00
    -52.934  0.0000E+00  0.0000E+00  0.1212E+00  0.1212E+00
    -52.692  0.0000E+00  0.0000E+00  0.1212E+00  0.1212E+00
    -52.451  0.0000E+00  0.0000E+00  0.1212E+00  0.1212E+00
    -52.209  0.0000E+00  0.0000E+00  0.1212E+00  0.1212E+00
    -51.967  0.0000E+00  0.0000E+00  0.1212E+00  0.1212E+00
    -51.725  0.0000E+00  0.0000E+00  0.1212E+00  0.1212E+00
    -51.484  0.0000E+00  0.0000E+00  0.1212E+00  0.1212E+00
    -51.242  0.0000E+00  0.0000E+00  0.1212E+00  0.1212E+00
    -51.000  0.0000E+00  0.0000E+00  0.1212E+00  0.1212E+00
    -50.758  0.0000E+00  0.0000E+00  0.1212E+00  0.1212E+00
    -50.517  0.0000E+00  0.0000E+00  0.1212E+00  0.1212E+00
    -50.275  0.0000E+00  0.0000E+00  0.1212E+00  0.1212E+00
    -50.033  0.0000E+00  0.0000E+00  0.1212E+00  0.1212E+00
    -49.791  0.0000E+00  0.0000E+00  0.1212E+00  0.1212E+00
    -49.550  0.0000E+00  0.0000E+00  0.1212E+00  0.1212E+00
    -49.308  0.0000E+00  0.0000E+00  0.1212E+00  0.1212E+00
    -49.066  0.0000E+00  0.0000E+00  0.1212E+00  0.1212E+00
    -48.824  0.0000E+00  0.0000E+00  0.1212E+00  0.1212E+00
    -48.582  0.0000E+00  0.0000E+00  0.1212E+00  0.1212E+00
    -48.341  0.0000E+00  0.0000E+00  0.1212E+00  0.1212E+00
    -48.099  0.0000E+00  0.0000E+00  0.1212E+00  0.1212E+00
    -47.857  0.0000E+00  0.0000E+00  0.1212E+00  0.1212E+00
    -47.615  0.0000E+00  0.0000E+00  0.1212E+00  0.1212E+00
    -47.374  0.0000E+00  0.0000E+00  0.1212E+00  0.1212E+00
    -47.132  0.0000E+00  0.0000E+00  0.1212E+00  0.1212E+00
    -46.890  0.0000E+00  0.0000E+00  0.1212E+00  0.1212E+00
    -46.648  0.0000E+00  0.0000E+00  0.1212E+00  0.1212E+00
    -46.407  0.0000E+00  0.0000E+00  0.1212E+00  0.1212E+00
    -46.165  0.0000E+00  0.0000E+00  0.1212E+00  0.1212E+00
    -45.923  0.0000E+00  0.0000E+00  0.1212E+00  0.1212E+00
    -45.681  0.0000E+00  0.0000E+00  0.1212E+00  0.1212E+00
    -45.440  0.0000E+00  0.0000E+00  0.1212E+00  0.1212E+00
    -45.198  0.0000E+00  0.0000E+00  0.1212E+00  0.1212E+00
    -44.956  0.0000E+00  0.0000E+00  0.1212E+00  0.1212E+00
    -44.714  0.0000E+00  0.0000E+00  0.1212E+00  0.1212E+00
    -44.472  0.0000E+00  0.0000E+00  0.1212E+00  0.1212E+00
    -44.231  0.0000E+00  0.0000E+00  0.1212E+00  0.1212E+00
    -43.989  0.0000E+00  0.0000E+00  0.1212E+00  0.1212E+00
    -43.747  0.0000E+00  0.0000E+00  0.1212E+00  0.1212E+00
    -43.505  0.0000E+00  0.0000E+00  0.1212E+00  0.1212E+00
    -43.264  0.0000E+00  0.0000E+00  0.1212E+00  0.1212E+00
    -43.022  0.0000E+00  0.0000E+00  0.1212E+00  0.1212E+00
    -42.780  0.0000E+00  0.0000E+00  0.1212E+00  0.1212E+00
    -42.538  0.0000E+00  0.0000E+00  0.1212E+00  0.1212E+00
    -42.297  0.0000E+00  0.0000E+00  0.1212E+00  0.1212E+00
    -42.055  0.0000E+00  0.0000E+00  0.1212E+00  0.1212E+00
    -41.813  0.0000E+00  0.0000E+00  0.1212E+00  0.1212E+00
    -41.571  0.0000E+00  0.0000E+00  0.1212E+00  0.1212E+00
    -41.330  0.0000E+00  0.0000E+00  0.1212E+00  0.1212E+00
    -41.088  0.0000E+00  0.0000E+00  0.1212E+00  0.1212E+00
    -40.846  0.0000E+00  0.0000E+00  0.1212E+00  0.1212E+00
    -40.604  0.0000E+00  0.0000E+00  0.1212E+00  0.1212E+00
    -40.362  0.0000E+00  0.0000E+00  0.1212E+00  0.1212E+00
    -40.121  0.0000E+00  0.0000E+00  0.1212E+00  0.1212E+00
    -39.879  0.0000E+00  0.0000E+00  0.1212E+00  0.1212E+00
    -39.637  0.0000E+00  0.0000E+00  0.1212E+00  0.1212E+00
    -39.395  0.0000E+00  0.0000E+00  0.1212E+00  0.1212E+00
    -39.154  0.0000E+00  0.0000E+00  0.1212E+00  0.1212E+00
    -38.912  0.0000E+00  0.0000E+00  0.1212E+00  0.1212E+00
    -38.670  0.0000E+00  0.0000E+00  0.1212E+00  0.1212E+00
    -38.428  0.0000E+00  0.0000E+00  0.1212E+00  0.1212E+00
    -38.187  0.0000E+00  0.0000E+00  0.1212E+00  0.1212E+00
    -37.945  0.0000E+00  0.0000E+00  0.1212E+00  0.1212E+00
    -37.703  0.0000E+00  0.0000E+00  0.1212E+00  0.1212E+00
    -37.461  0.0000E+00  0.0000E+00  0.1212E+00  0.1212E+00
    -37.220  0.0000E+00  0.0000E+00  0.1212E+00  0.1212E+00
    -36.978  0.0000E+00  0.0000E+00  0.1212E+00  0.1212E+00
    -36.736  0.0000E+00  0.0000E+00  0.1212E+00  0.1212E+00
    -36.494  0.0000E+00  0.0000E+00  0.1212E+00  0.1212E+00
    -36.252  0.0000E+00  0.0000E+00  0.1212E+00  0.1212E+00
    -36.011  0.0000E+00  0.0000E+00  0.1212E+00  0.1212E+00
    -35.769  0.0000E+00  0.0000E+00  0.1212E+00  0.1212E+00
    -35.527  0.0000E+00  0.0000E+00  0.1212E+00  0.1212E+00
    -35.285  0.3305E-15  0.1113E-15  0.1212E+00  0.1212E+00
    -35.044  0.5981E-02  0.4832E-02  0.1227E+00  0.1224E+00
    -34.802  0.3580E-01  0.3695E-01  0.1313E+00  0.1313E+00
    -34.560  0.1683E-07  0.1303E-07  0.1313E+00  0.1313E+00
    -34.318  0.3966E-01  0.3946E-01  0.1409E+00  0.1409E+00
    -34.077  0.2117E-02  0.2322E-02  0.1414E+00  0.1414E+00
    -33.835  0.4021E-01  0.3987E-01  0.1511E+00  0.1511E+00
    -33.593  0.3001E-01  0.2891E-01  0.1584E+00  0.1580E+00
    -33.351  0.1334E-01  0.1478E-01  0.1616E+00  0.1616E+00
    -33.110  0.0000E+00  0.0000E+00  0.1616E+00  0.1616E+00
    -32.868  0.0000E+00  0.0000E+00  0.1616E+00  0.1616E+00
    -32.626  0.0000E+00  0.0000E+00  0.1616E+00  0.1616E+00
    -32.384  0.0000E+00  0.0000E+00  0.1616E+00  0.1616E+00
    -32.142  0.0000E+00  0.0000E+00  0.1616E+00  0.1616E+00
    -31.901  0.0000E+00  0.0000E+00  0.1616E+00  0.1616E+00
    -31.659  0.0000E+00  0.0000E+00  0.1616E+00  0.1616E+00
    -31.417  0.0000E+00  0.0000E+00  0.1616E+00  0.1616E+00
    -31.175  0.0000E+00  0.0000E+00  0.1616E+00  0.1616E+00
    -30.934  0.0000E+00  0.0000E+00  0.1616E+00  0.1616E+00
    -30.692  0.0000E+00  0.0000E+00  0.1616E+00  0.1616E+00
    -30.450  0.0000E+00  0.0000E+00  0.1616E+00  0.1616E+00
    -30.208  0.0000E+00  0.0000E+00  0.1616E+00  0.1616E+00
    -29.967  0.0000E+00  0.0000E+00  0.1616E+00  0.1616E+00
    -29.725  0.0000E+00  0.0000E+00  0.1616E+00  0.1616E+00
    -29.483  0.0000E+00  0.0000E+00  0.1616E+00  0.1616E+00
    -29.241  0.0000E+00  0.0000E+00  0.1616E+00  0.1616E+00
    -29.000  0.0000E+00  0.0000E+00  0.1616E+00  0.1616E+00
    -28.758  0.0000E+00  0.0000E+00  0.1616E+00  0.1616E+00
    -28.516  0.0000E+00  0.0000E+00  0.1616E+00  0.1616E+00
    -28.274  0.0000E+00  0.0000E+00  0.1616E+00  0.1616E+00
    -28.032  0.0000E+00  0.0000E+00  0.1616E+00  0.1616E+00
    -27.791  0.0000E+00  0.0000E+00  0.1616E+00  0.1616E+00
    -27.549  0.0000E+00  0.0000E+00  0.1616E+00  0.1616E+00
    -27.307  0.0000E+00  0.0000E+00  0.1616E+00  0.1616E+00
    -27.065  0.0000E+00  0.0000E+00  0.1616E+00  0.1616E+00
    -26.824  0.0000E+00  0.0000E+00  0.1616E+00  0.1616E+00
    -26.582  0.0000E+00  0.0000E+00  0.1616E+00  0.1616E+00
    -26.340  0.0000E+00  0.0000E+00  0.1616E+00  0.1616E+00
    -26.098  0.0000E+00  0.0000E+00  0.1616E+00  0.1616E+00
    -25.857  0.0000E+00  0.0000E+00  0.1616E+00  0.1616E+00
    -25.615  0.0000E+00  0.0000E+00  0.1616E+00  0.1616E+00
    -25.373  0.0000E+00  0.0000E+00  0.1616E+00  0.1616E+00
    -25.131  0.0000E+00  0.0000E+00  0.1616E+00  0.1616E+00
    -24.890  0.0000E+00  0.0000E+00  0.1616E+00  0.1616E+00
    -24.648  0.0000E+00  0.0000E+00  0.1616E+00  0.1616E+00
    -24.406  0.0000E+00  0.0000E+00  0.1616E+00  0.1616E+00
    -24.164  0.0000E+00  0.0000E+00  0.1616E+00  0.1616E+00
    -23.923  0.2964E-05  0.0000E+00  0.1616E+00  0.1616E+00
    -23.681  0.4167E-01  0.0000E+00  0.1717E+00  0.1616E+00
    -23.439  0.1102E-03  0.2070E-15  0.1717E+00  0.1616E+00
    -23.197  0.0000E+00  0.6452E-02  0.1717E+00  0.1632E+00
    -22.955  0.0000E+00  0.3533E-01  0.1717E+00  0.1717E+00
    -22.714  0.0000E+00  0.0000E+00  0.1717E+00  0.1717E+00
    -22.472  0.0000E+00  0.0000E+00  0.1717E+00  0.1717E+00
    -22.230  0.0000E+00  0.0000E+00  0.1717E+00  0.1717E+00
    -21.988  0.0000E+00  0.0000E+00  0.1717E+00  0.1717E+00
    -21.747  0.0000E+00  0.0000E+00  0.1717E+00  0.1717E+00
    -21.505  0.0000E+00  0.0000E+00  0.1717E+00  0.1717E+00
    -21.263  0.0000E+00  0.0000E+00  0.1717E+00  0.1717E+00
    -21.021  0.0000E+00  0.0000E+00  0.1717E+00  0.1717E+00
    -20.780  0.0000E+00  0.0000E+00  0.1717E+00  0.1717E+00
    -20.538  0.0000E+00  0.0000E+00  0.1717E+00  0.1717E+00
    -20.296  0.0000E+00  0.0000E+00  0.1717E+00  0.1717E+00
    -20.054  0.0000E+00  0.0000E+00  0.1717E+00  0.1717E+00
    -19.813  0.0000E+00  0.0000E+00  0.1717E+00  0.1717E+00
    -19.571  0.2124E-14  0.0000E+00  0.1717E+00  0.1717E+00
    -19.329  0.4733E-02  0.3907E-14  0.1729E+00  0.1717E+00
    -19.087  0.5028E-01  0.6347E-02  0.1850E+00  0.1733E+00
    -18.845  0.4445E-01  0.4770E-01  0.1958E+00  0.1848E+00
    -18.604  0.3564E-01  0.4660E-01  0.2044E+00  0.1961E+00
    -18.362  0.8448E-01  0.3379E-01  0.2248E+00  0.2042E+00
    -18.120  0.1014E+00  0.7553E-01  0.2493E+00  0.2225E+00
    -17.878  0.8624E-01  0.6242E-01  0.2702E+00  0.2376E+00
    -17.637  0.5236E-01  0.8992E-01  0.2828E+00  0.2593E+00
    -17.395  0.9418E-05  0.6173E-01  0.2828E+00  0.2742E+00
    -17.153  0.2418E-01  0.3812E-01  0.2887E+00  0.2835E+00
    -16.911  0.4846E-01  0.4525E-01  0.3004E+00  0.2944E+00
    -16.670  0.4677E-01  0.4863E-01  0.3117E+00  0.3061E+00
    -16.428  0.3083E-01  0.4200E-01  0.3192E+00  0.3163E+00
    -16.186  0.9881E-01  0.8852E-01  0.3430E+00  0.3377E+00
    -15.944  0.7486E-01  0.4367E-01  0.3611E+00  0.3483E+00
    -15.703  0.8397E-01  0.8555E-01  0.3814E+00  0.3689E+00
    -15.461  0.1036E+00  0.1187E+00  0.4065E+00  0.3976E+00
    -15.219  0.3163E-01  0.6825E-01  0.4141E+00  0.4141E+00
    -14.977  0.0000E+00  0.3441E-05  0.4141E+00  0.4141E+00
    -14.735  0.0000E+00  0.0000E+00  0.4141E+00  0.4141E+00
    -14.494  0.0000E+00  0.0000E+00  0.4141E+00  0.4141E+00
    -14.252  0.0000E+00  0.0000E+00  0.4141E+00  0.4141E+00
    -14.010  0.0000E+00  0.0000E+00  0.4141E+00  0.4141E+00
    -13.768  0.0000E+00  0.0000E+00  0.4141E+00  0.4141E+00
    -13.527  0.0000E+00  0.0000E+00  0.4141E+00  0.4141E+00
    -13.285  0.0000E+00  0.0000E+00  0.4141E+00  0.4141E+00
    -13.043  0.0000E+00  0.0000E+00  0.4141E+00  0.4141E+00
    -12.801  0.0000E+00  0.0000E+00  0.4141E+00  0.4141E+00
    -12.560  0.0000E+00  0.0000E+00  0.4141E+00  0.4141E+00
    -12.318  0.0000E+00  0.0000E+00  0.4141E+00  0.4141E+00
    -12.076  0.0000E+00  0.0000E+00  0.4141E+00  0.4141E+00
    -11.834  0.0000E+00  0.0000E+00  0.4141E+00  0.4141E+00
    -11.593  0.0000E+00  0.0000E+00  0.4141E+00  0.4141E+00
    -11.351  0.0000E+00  0.0000E+00  0.4141E+00  0.4141E+00
    -11.109  0.0000E+00  0.0000E+00  0.4141E+00  0.4141E+00
    -10.867  0.0000E+00  0.0000E+00  0.4141E+00  0.4141E+00
    -10.625  0.0000E+00  0.0000E+00  0.4141E+00  0.4141E+00
    -10.384  0.0000E+00  0.0000E+00  0.4141E+00  0.4141E+00
    -10.142  0.0000E+00  0.0000E+00  0.4141E+00  0.4141E+00
     -9.900  0.0000E+00  0.0000E+00  0.4141E+00  0.4141E+00
     -9.658  0.0000E+00  0.0000E+00  0.4141E+00  0.4141E+00
     -9.417  0.3682E-05  0.0000E+00  0.4141E+00  0.4141E+00
     -9.175  0.5077E-01  0.0000E+00  0.4264E+00  0.4141E+00
     -8.933  0.7142E-01  0.0000E+00  0.4437E+00  0.4141E+00
     -8.691  0.9831E-01  0.0000E+00  0.4675E+00  0.4141E+00
     -8.450  0.1366E+00  0.0000E+00  0.5005E+00  0.4141E+00
     -8.208  0.2222E+00  0.0000E+00  0.5542E+00  0.4141E+00
     -7.966  0.1429E+00  0.0000E+00  0.5888E+00  0.4141E+00
     -7.724  0.5070E-01  0.2934E-13  0.6010E+00  0.4141E+00
     -7.483  0.2046E-01  0.5011E-02  0.6060E+00  0.4154E+00
     -7.241  0.5141E-01  0.3531E-01  0.6184E+00  0.4239E+00
     -6.999  0.4290E-01  0.8714E-02  0.6288E+00  0.4260E+00
     -6.757  0.3047E-01  0.3655E-02  0.6361E+00  0.4269E+00
     -6.515  0.4936E-01  0.1786E-01  0.6481E+00  0.4312E+00
     -6.274  0.1431E-01  0.3450E-01  0.6515E+00  0.4395E+00
     -6.032  0.5264E-02  0.4233E-01  0.6528E+00  0.4498E+00
     -5.790  0.2397E-01  0.7033E-01  0.6586E+00  0.4668E+00
     -5.548  0.4368E-01  0.5386E-01  0.6691E+00  0.4798E+00
     -5.307  0.3133E-01  0.2762E-01  0.6767E+00  0.4865E+00
     -5.065  0.1054E-01  0.1231E+00  0.6793E+00  0.5162E+00
     -4.823  0.3045E-01  0.1337E+00  0.6866E+00  0.5486E+00
     -4.581  0.1375E-01  0.8455E-01  0.6900E+00  0.5690E+00
     -4.340  0.3051E-01  0.4659E-01  0.6973E+00  0.5803E+00
     -4.098  0.3329E-01  0.5528E-01  0.7054E+00  0.5936E+00
     -3.856  0.4513E-01  0.9463E-01  0.7163E+00  0.6165E+00
     -3.614  0.8726E-01  0.4741E-01  0.7374E+00  0.6280E+00
     -3.373  0.7466E-01  0.6395E-01  0.7554E+00  0.6434E+00
     -3.131  0.1412E+00  0.5983E-01  0.7896E+00  0.6579E+00
     -2.889  0.1298E+00  0.4023E-01  0.8210E+00  0.6676E+00
     -2.647  0.1099E+00  0.5779E-01  0.8475E+00  0.6816E+00
     -2.405  0.1144E+00  0.1273E+00  0.8752E+00  0.7124E+00
     -2.164  0.1334E+00  0.9183E-01  0.9075E+00  0.7346E+00
     -1.922  0.1279E+00  0.5569E-01  0.9384E+00  0.7480E+00
     -1.680  0.9396E-01  0.3857E-01  0.9611E+00  0.7574E+00
     -1.438  0.4843E-01  0.8981E-01  0.9728E+00  0.7791E+00
     -1.197  0.1904E-01  0.6772E-01  0.9774E+00  0.7954E+00
     -0.955  0.2034E-01  0.1566E-02  0.9823E+00  0.7958E+00
     -0.713  0.1043E-01  0.8901E-02  0.9848E+00  0.7980E+00
     -0.471  0.1068E-01  0.0000E+00  0.9874E+00  0.7980E+00
     -0.230  0.3764E-01  0.0000E+00  0.9965E+00  0.7980E+00
      0.012  0.1427E-01  0.7022E-09  0.1000E+01  0.7980E+00
      0.254  0.8302E-04  0.2230E-01  0.1000E+01  0.8034E+00
      0.496  0.0000E+00  0.6525E-01  0.1000E+01  0.8191E+00
      0.737  0.0000E+00  0.6924E-01  0.1000E+01  0.8359E+00
      0.979  0.0000E+00  0.9682E-01  0.1000E+01  0.8593E+00
      1.221  0.0000E+00  0.1517E+00  0.1000E+01  0.8960E+00
      1.463  0.0000E+00  0.1490E+00  0.1000E+01  0.9320E+00
      1.704  0.0000E+00  0.1079E+00  0.1000E+01  0.9581E+00
      1.946  0.0000E+00  0.3271E-01  0.1000E+01  0.9660E+00
      2.188  0.2087E-16  0.1588E-01  0.1000E+01  0.9698E+00
      2.430  0.1615E-02  0.3096E-01  0.1000E+01  0.9773E+00
      2.672  0.8830E-02  0.2075E-01  0.1003E+01  0.9823E+00
      2.913  0.1676E-01  0.1372E-03  0.1007E+01  0.9824E+00
      3.155  0.1883E-01  0.2785E-01  0.1011E+01  0.9891E+00
      3.397  0.6195E-02  0.3631E-01  0.1013E+01  0.9979E+00
      3.639  0.6826E-05  0.2550E-01  0.1013E+01  0.1004E+01
      3.880  0.1179E-01  0.3165E-01  0.1015E+01  0.1012E+01
      4.122  0.1018E-01  0.1434E-01  0.1018E+01  0.1015E+01
      4.364  0.1988E-01  0.2251E-01  0.1023E+01  0.1021E+01
      4.606  0.2112E-01  0.1938E-01  0.1028E+01  0.1025E+01
      4.847  0.3821E-01  0.3237E-01  0.1037E+01  0.1033E+01
      5.089  0.6519E-01  0.2363E-01  0.1053E+01  0.1039E+01
      5.331  0.2443E-01  0.5495E-01  0.1059E+01  0.1052E+01
      5.573  0.4699E-01  0.4016E-01  0.1070E+01  0.1062E+01
      5.814  0.7308E-01  0.5283E-01  0.1088E+01  0.1075E+01
      6.056  0.4792E-01  0.6209E-01  0.1099E+01  0.1090E+01
      6.298  0.6019E-01  0.5504E-01  0.1114E+01  0.1103E+01
      6.540  0.8926E-01  0.9323E-01  0.1136E+01  0.1125E+01
      6.782  0.6594E-01  0.6876E-01  0.1151E+01  0.1142E+01
      7.023  0.5611E-01  0.7234E-01  0.1165E+01  0.1160E+01
      7.265  0.1948E-01  0.3974E-01  0.1170E+01  0.1169E+01
      7.507  0.8257E-02  0.1057E-01  0.1172E+01  0.1172E+01
      7.749  0.0000E+00  0.7060E-07  0.1172E+01  0.1172E+01
      7.990  0.0000E+00  0.0000E+00  0.1172E+01  0.1172E+01
      8.232  0.0000E+00  0.0000E+00  0.1172E+01  0.1172E+01
      8.474  0.0000E+00  0.0000E+00  0.1172E+01  0.1172E+01
      8.716  0.0000E+00  0.0000E+00  0.1172E+01  0.1172E+01
      8.957  0.0000E+00  0.0000E+00  0.1172E+01  0.1172E+01
      9.199  0.0000E+00  0.0000E+00  0.1172E+01  0.1172E+01
      9.441  0.0000E+00  0.0000E+00  0.1172E+01  0.1172E+01
      9.683  0.0000E+00  0.0000E+00  0.1172E+01  0.1172E+01
      9.924  0.0000E+00  0.0000E+00  0.1172E+01  0.1172E+01
     10.166  0.0000E+00  0.0000E+00  0.1172E+01  0.1172E+01
     10.408  0.0000E+00  0.0000E+00  0.1172E+01  0.1172E+01
     10.650  0.0000E+00  0.0000E+00  0.1172E+01  0.1172E+01
