Automatically generated mesh
       3
Reciprocal lattice
    0.12500000000000    0.12500000000000    0.00000000000000             4
    0.37500000000000    0.12500000000000    0.00000000000000             8
    0.37500000000000    0.37500000000000    0.00000000000000             4
