       N       E                     dE             d eps       ncg     rms          rms(c)
DAV:   1     0.147847873208E+04    0.14785E+04   -0.72540E+04  1552   0.104E+03
DAV:   2    -0.244536203465E+02   -0.15029E+04   -0.14358E+04  1468   0.375E+02
DAV:   3    -0.146610827529E+03   -0.12216E+03   -0.11988E+03  1672   0.116E+02
DAV:   4    -0.152163996280E+03   -0.55532E+01   -0.55194E+01  2160   0.244E+01
DAV:   5    -0.152593617126E+03   -0.42962E+00   -0.42932E+00  2352   0.420E+00    0.563E+01
RMM:   6    -0.299994930896E+03   -0.14740E+03   -0.61010E+02  1530   0.936E+01    0.977E+01
RMM:   7    -0.929950954417E+03   -0.62996E+03   -0.89010E+02  1804   0.558E+01    0.104E+02
RMM:   8    -0.224431309006E+03    0.70552E+03   -0.76768E+01  1436   0.312E+01    0.831E+01
RMM:   9    -0.124841492030E+03    0.99590E+02   -0.21860E+01  1398   0.165E+01    0.346E+01
RMM:  10    -0.126197294236E+03   -0.13558E+01   -0.77677E+00  1417   0.978E+00    0.292E+01
RMM:  11    -0.128609229066E+03   -0.24119E+01   -0.20531E+00  1433   0.525E+00    0.259E+01
RMM:  12    -0.130266176033E+03   -0.16569E+01   -0.87873E-01  1458   0.294E+00    0.236E+01
RMM:  13    -0.130840193765E+03   -0.57402E+00   -0.59016E+00  1399   0.782E+00    0.157E+01
RMM:  14    -0.129748653427E+03    0.10915E+01   -0.28038E+00  1435   0.515E+00    0.128E+01
RMM:  15    -0.128741647639E+03    0.10070E+01   -0.11110E+00  1439   0.317E+00    0.110E+01
RMM:  16    -0.127990146482E+03    0.75150E+00   -0.76495E-01  1443   0.242E+00    0.116E+01
RMM:  17    -0.127968469227E+03    0.21677E-01   -0.22209E-01  1520   0.145E+00    0.874E+00
RMM:  18    -0.128515916280E+03   -0.54745E+00   -0.41461E-01  1412   0.183E+00    0.126E+01
RMM:  19    -0.128627016656E+03   -0.11110E+00   -0.14308E-01  1449   0.126E+00    0.119E+01
RMM:  20    -0.128801155088E+03   -0.17414E+00   -0.20356E-02  1604   0.391E-01    0.118E+01
RMM:  21    -0.130450563862E+03   -0.16494E+01   -0.25403E-01  1401   0.114E+00    0.119E+01
RMM:  22    -0.131158065037E+03   -0.70750E+00   -0.24596E-01  1400   0.144E+00    0.131E+01
RMM:  23    -0.130205979081E+03    0.95209E+00   -0.79895E-02  1425   0.853E-01    0.861E+00
RMM:  24    -0.129703872024E+03    0.50211E+00   -0.64362E-02  1432   0.818E-01    0.703E+00
RMM:  25    -0.129415914541E+03    0.28796E+00   -0.29052E-02  1459   0.523E-01    0.661E+00
RMM:  26    -0.129392801674E+03    0.23113E-01   -0.49722E-03  1396   0.228E-01    0.652E+00
RMM:  27    -0.129017528457E+03    0.37527E+00   -0.46890E-02  1397   0.596E-01    0.603E+00
RMM:  28    -0.128468620958E+03    0.54891E+00   -0.74651E-02  1410   0.710E-01    0.323E+00
RMM:  29    -0.128419287290E+03    0.49334E-01   -0.26904E-02  1445   0.467E-01    0.241E+00
RMM:  30    -0.128425856600E+03   -0.65693E-02   -0.62118E-03  1458   0.198E-01    0.228E+00
RMM:  31    -0.128489958888E+03   -0.64102E-01   -0.19829E-02  1383   0.427E-01    0.284E+00
RMM:  32    -0.128479906727E+03    0.10052E-01   -0.22259E-02  1396   0.474E-01    0.218E+00
RMM:  33    -0.128522430126E+03   -0.42523E-01   -0.12052E-02  1373   0.301E-01    0.653E+00
RMM:  34    -0.128458257583E+03    0.64173E-01   -0.61381E-03  1310   0.256E-01    0.290E+00
RMM:  35    -0.128498358150E+03   -0.40101E-01   -0.55746E-03  1245   0.185E-01    0.284E+00
RMM:  36    -0.128506719188E+03   -0.83610E-02   -0.13847E-03  1153   0.103E-01    0.175E+00
RMM:  37    -0.128587084005E+03   -0.80365E-01   -0.58132E-03  1316   0.199E-01    0.750E+00
RMM:  38    -0.128643272877E+03   -0.56189E-01   -0.66812E-03  1273   0.233E-01    0.872E+00
RMM:  39    -0.128602616523E+03    0.40656E-01   -0.17685E-03  1112   0.129E-01    0.864E+00
RMM:  40    -0.128595943558E+03    0.66730E-02   -0.15257E-04   858   0.455E-02    0.862E+00
RMM:  41    -0.128584664040E+03    0.11280E-01   -0.13504E-04   851   0.331E-02    0.850E+00
RMM:  42    -0.128569375702E+03    0.15288E-01   -0.27969E-04   922   0.393E-02    0.818E+00
RMM:  43    -0.128562679914E+03    0.66958E-02   -0.20050E-04   868   0.338E-02    0.788E+00
RMM:  44    -0.128560690443E+03    0.19895E-02   -0.17537E-04   831   0.321E-02    0.765E+00
RMM:  45    -0.128598840500E+03   -0.38150E-01   -0.36649E-04   959   0.477E-02    0.810E+00
RMM:  46    -0.128595083286E+03    0.37572E-02   -0.68620E-05   794   0.289E-02    0.810E+00
RMM:  47    -0.128621560339E+03   -0.26477E-01   -0.60343E-04  1040   0.628E-02    0.818E+00
RMM:  48    -0.128643068229E+03   -0.21508E-01   -0.62016E-04  1062   0.645E-02    0.817E+00
RMM:  49    -0.128605064603E+03    0.38004E-01   -0.14862E-03  1161   0.903E-02    0.756E+00
RMM:  50    -0.128591409976E+03    0.13655E-01   -0.13345E-03  1157   0.931E-02    0.688E+00
RMM:  51    -0.128523973768E+03    0.67436E-01   -0.28007E-03  1260   0.126E-01    0.331E+00
RMM:  52    -0.128604694027E+03   -0.80720E-01   -0.26004E-03  1217   0.153E-01    0.586E+00
RMM:  53    -0.128578036198E+03    0.26658E-01   -0.13115E-03  1117   0.961E-02    0.554E+00
RMM:  54    -0.128569840186E+03    0.81960E-02   -0.73987E-04  1052   0.681E-02    0.512E+00
RMM:  55    -0.128549823778E+03    0.20016E-01   -0.68584E-04  1089   0.662E-02    0.392E+00
RMM:  56    -0.128560252602E+03   -0.10429E-01   -0.97315E-04  1138   0.834E-02    0.397E+00
RMM:  57    -0.128556884362E+03    0.33682E-02   -0.63031E-04  1060   0.659E-02    0.346E+00
RMM:  58    -0.128557484531E+03   -0.60017E-03   -0.19503E-04   871   0.444E-02    0.317E+00
RMM:  59    -0.128562035559E+03   -0.45510E-02   -0.12753E-04   839   0.342E-02    0.330E+00
RMM:  60    -0.128560490201E+03    0.15454E-02   -0.64195E-05   749   0.238E-02    0.320E+00
RMM:  61    -0.128552298231E+03    0.81920E-02   -0.22085E-04   925   0.357E-02    0.226E+00
RMM:  62    -0.128560369348E+03   -0.80711E-02   -0.32502E-04   892   0.494E-02    0.252E+00
RMM:  63    -0.128561533477E+03   -0.11641E-02   -0.29617E-05   699   0.179E-02    0.263E+00
RMM:  64    -0.128559544810E+03    0.19887E-02   -0.20811E-05   511   0.118E-02    0.248E+00
RMM:  65    -0.128554599384E+03    0.49454E-02   -0.81232E-05   787   0.237E-02    0.157E+00
RMM:  66    -0.128553372116E+03    0.12273E-02   -0.48656E-03  1237   0.157E-01    0.178E+00
RMM:  67    -0.128555011709E+03   -0.16396E-02   -0.12012E-03  1080   0.106E-01    0.191E+00
RMM:  68    -0.128553283550E+03    0.17282E-02   -0.18810E-04   858   0.427E-02    0.195E+00
RMM:  69    -0.128549606676E+03    0.36769E-02   -0.11996E-04   839   0.377E-02    0.159E+00
RMM:  70    -0.128553378854E+03   -0.37722E-02   -0.24837E-03  1228   0.125E-01    0.107E+00
RMM:  71    -0.128566749571E+03   -0.13371E-01   -0.26387E-03  1239   0.162E-01    0.242E+00
RMM:  72    -0.128564221700E+03    0.25279E-02   -0.15035E-03  1048   0.110E-01    0.248E+00
RMM:  73    -0.128563830785E+03    0.39092E-03   -0.24032E-04   899   0.505E-02    0.258E+00
RMM:  74    -0.128561019166E+03    0.28116E-02   -0.96226E-05   802   0.300E-02    0.235E+00
RMM:  75    -0.128562398306E+03   -0.13791E-02   -0.13749E-04   827   0.324E-02    0.247E+00
RMM:  76    -0.128564034436E+03   -0.16361E-02   -0.97828E-04  1090   0.750E-02    0.280E+00
RMM:  77    -0.128561731661E+03    0.23028E-02   -0.12759E-04   791   0.357E-02    0.269E+00
RMM:  78    -0.128557795349E+03    0.39363E-02   -0.69566E-05   752   0.254E-02    0.214E+00
RMM:  79    -0.128556694195E+03    0.11012E-02   -0.25000E-04   819   0.366E-02    0.162E+00
RMM:  80    -0.128559194372E+03   -0.25002E-02   -0.26590E-04   847   0.407E-02    0.168E+00
RMM:  81    -0.128556713565E+03    0.24808E-02   -0.97974E-04  1132   0.811E-02    0.133E+00
RMM:  82    -0.128558315288E+03   -0.16017E-02   -0.33287E-04   927   0.638E-02    0.136E+00
RMM:  83    -0.128558041251E+03    0.27404E-03   -0.23828E-05   755   0.202E-02    0.139E+00
RMM:  84    -0.128558272627E+03   -0.23138E-03   -0.43555E-06   535   0.929E-03    0.145E+00
RMM:  85    -0.128557957176E+03    0.31545E-03   -0.34926E-05   720   0.190E-02    0.147E+00
RMM:  86    -0.128557305623E+03    0.65155E-03   -0.52469E-04  1010   0.518E-02    0.196E+00
RMM:  87    -0.128556893366E+03    0.41226E-03   -0.94049E-05   807   0.295E-02    0.209E+00
RMM:  88    -0.128555812112E+03    0.10813E-02   -0.56158E-05   770   0.211E-02    0.196E+00
RMM:  89    -0.128554752132E+03    0.10600E-02   -0.15480E-05   626   0.122E-02    0.182E+00
RMM:  90    -0.128555093102E+03   -0.34097E-03   -0.42920E-05   656   0.166E-02    0.185E+00
RMM:  91    -0.128590055765E+03   -0.34963E-01   -0.17323E-03  1221   0.103E-01    0.485E+00
RMM:  92    -0.128567350949E+03    0.22705E-01   -0.19687E-03  1115   0.120E-01    0.451E+00
RMM:  93    -0.128575611988E+03   -0.82610E-02   -0.24991E-04   886   0.471E-02    0.504E+00
RMM:  94    -0.128567959078E+03    0.76529E-02   -0.17516E-04   860   0.418E-02    0.491E+00
RMM:  95    -0.128571572327E+03   -0.36132E-02   -0.24996E-05   715   0.182E-02    0.507E+00
RMM:  96    -0.128628859216E+03   -0.57287E-01   -0.42982E-03  1265   0.183E-01    0.663E+00
RMM:  97    -0.128593936647E+03    0.34923E-01   -0.93402E-04  1114   0.104E-01    0.622E+00
RMM:  98    -0.128590391446E+03    0.35452E-02   -0.20347E-04   886   0.433E-02    0.615E+00
RMM:  99    -0.128592013856E+03   -0.16224E-02   -0.48764E-05   742   0.218E-02    0.617E+00
RMM: 100    -0.128575793062E+03    0.16221E-01   -0.65596E-04  1026   0.626E-02
   1 F= -.12857579E+03 E0= -.12856441E+03  d E =-.128576E+03  mag=    18.6003
       N       E                     dE             d eps       ncg     rms          rms(c)
DAV:   1    -0.128491850045E+03    0.10016E+00   -0.28944E+01  1520   0.108E+01    0.689E+00
RMM:   2    -0.236052242701E+03   -0.10756E+03   -0.11038E+01  1425   0.580E+00    0.826E+01
RMM:   3    -0.136945628470E+03    0.99107E+02   -0.42739E+00  1417   0.560E+00    0.219E+01
RMM:   4    -0.127679258398E+03    0.92664E+01   -0.19903E+00  1409   0.374E+00    0.582E+00
RMM:   5    -0.128502706849E+03   -0.82345E+00   -0.95372E-01  1454   0.278E+00    0.922E+00
RMM:   6    -0.127665078226E+03    0.83763E+00   -0.65036E-01  1436   0.191E+00    0.500E+00
RMM:   7    -0.127752861336E+03   -0.87783E-01   -0.26500E-01  1415   0.136E+00    0.620E+00
RMM:   8    -0.128092011669E+03   -0.33915E+00   -0.10241E-01  1325   0.690E-01    0.664E+00
RMM:   9    -0.128001189174E+03    0.90822E-01   -0.63416E-03  1294   0.250E-01    0.681E+00
RMM:  10    -0.128441623609E+03   -0.44043E+00   -0.19868E-01  1371   0.846E-01    0.491E+00
RMM:  11    -0.128293055333E+03    0.14857E+00   -0.87719E-02  1396   0.744E-01    0.206E+00
RMM:  12    -0.128281435580E+03    0.11620E-01   -0.89574E-03  1374   0.267E-01    0.178E+00
RMM:  13    -0.128267804366E+03    0.13631E-01   -0.35569E-03  1328   0.145E-01    0.154E+00
RMM:  14    -0.128266163452E+03    0.16409E-02   -0.81201E-03  1345   0.222E-01    0.194E+00
RMM:  15    -0.128308272413E+03   -0.42109E-01   -0.68184E-03  1337   0.200E-01    0.666E+00
RMM:  16    -0.128244790335E+03    0.63482E-01   -0.13532E-02  1351   0.329E-01    0.105E+00
RMM:  17    -0.128276869032E+03   -0.32079E-01   -0.77901E-03  1307   0.262E-01    0.576E-01
RMM:  18    -0.128280715667E+03   -0.38466E-02   -0.19355E-03  1253   0.139E-01    0.594E-01
RMM:  19    -0.128289653349E+03   -0.89377E-02   -0.23228E-03  1201   0.119E-01    0.115E+00
RMM:  20    -0.128302084167E+03   -0.12431E-01   -0.32018E-03  1276   0.156E-01    0.194E+00
RMM:  21    -0.128294387809E+03    0.76964E-02   -0.14760E-03  1112   0.120E-01    0.119E+00
RMM:  22    -0.128292566673E+03    0.18211E-02   -0.27815E-04   934   0.537E-02    0.547E-01
RMM:  23    -0.128298468979E+03   -0.59023E-02   -0.39698E-04   974   0.592E-02    0.117E+00
RMM:  24    -0.128298477030E+03   -0.80507E-05   -0.30490E-04   949   0.480E-02
   2 F= -.12829848E+03 E0= -.12828411E+03  d E =0.277316E+00  mag=    18.8619
       N       E                     dE             d eps       ncg     rms          rms(c)
DAV:   1    -0.128548846718E+03   -0.25038E+00   -0.12974E+01  1512   0.786E+00    0.352E+00
RMM:   2    -0.154784083454E+03   -0.26235E+02   -0.51788E+00  1427   0.384E+00    0.544E+01
RMM:   3    -0.131158616299E+03    0.23625E+02   -0.12077E+00  1422   0.309E+00    0.111E+01
RMM:   4    -0.129111014490E+03    0.20476E+01   -0.69173E-01  1416   0.224E+00    0.826E+00
RMM:   5    -0.128763640013E+03    0.34737E+00   -0.11437E-01  1422   0.103E+00    0.769E+00
RMM:   6    -0.128526704942E+03    0.23694E+00   -0.42871E-02  1408   0.493E-01    0.586E+00
RMM:   7    -0.128637902253E+03   -0.11120E+00   -0.56209E-02  1383   0.645E-01    0.438E+00
RMM:   8    -0.128581593413E+03    0.56309E-01   -0.17148E-02  1390   0.409E-01    0.365E+00
RMM:   9    -0.128518420571E+03    0.63173E-01   -0.74831E-03  1324   0.244E-01    0.556E-01
RMM:  10    -0.128557733717E+03   -0.39313E-01   -0.63562E-03  1279   0.202E-01    0.437E+00
RMM:  11    -0.128532384760E+03    0.25349E-01   -0.61075E-03  1280   0.220E-01    0.203E+00
RMM:  12    -0.128529207122E+03    0.31776E-02   -0.47038E-03  1256   0.201E-01    0.398E-01
RMM:  13    -0.128531350336E+03   -0.21432E-02   -0.78127E-04  1072   0.784E-02    0.628E-01
RMM:  14    -0.128536445566E+03   -0.50952E-02   -0.69565E-04  1086   0.744E-02    0.157E+00
RMM:  15    -0.128535886681E+03    0.55889E-03   -0.95154E-04  1039   0.933E-02    0.177E+00
RMM:  16    -0.128534924865E+03    0.96182E-03   -0.26226E-04   899   0.507E-02    0.191E+00
RMM:  17    -0.128529277917E+03    0.56469E-02   -0.27508E-04   939   0.487E-02    0.148E+00
RMM:  18    -0.128527485240E+03    0.17927E-02   -0.18101E-04   878   0.413E-02    0.100E+00
RMM:  19    -0.128527225064E+03    0.26018E-03   -0.30030E-04   931   0.491E-02    0.269E-01
RMM:  20    -0.128529303114E+03   -0.20781E-02   -0.39729E-04   910   0.561E-02    0.259E-01
RMM:  21    -0.128529529329E+03   -0.22621E-03   -0.12441E-04   848   0.359E-02    0.453E-02
RMM:  22    -0.128530370085E+03   -0.84076E-03   -0.11142E-04   842   0.345E-02    0.111E-01
RMM:  23    -0.128531109740E+03   -0.73965E-03   -0.49775E-05   755   0.241E-02    0.412E-01
RMM:  24    -0.128531393460E+03   -0.28372E-03   -0.17522E-04   838   0.370E-02    0.165E-01
RMM:  25    -0.128532088572E+03   -0.69511E-03   -0.31615E-05   684   0.168E-02    0.822E-02
RMM:  26    -0.128532717468E+03   -0.62890E-03   -0.50551E-05   741   0.197E-02    0.805E-02
RMM:  27    -0.128533436927E+03   -0.71946E-03   -0.23777E-05   654   0.130E-02    0.124E-01
RMM:  28    -0.128534089501E+03   -0.65257E-03   -0.27735E-05   711   0.141E-02    0.230E-01
RMM:  29    -0.128534185712E+03   -0.96211E-04   -0.33164E-05   701   0.150E-02
   3 F= -.12853419E+03 E0= -.12851932E+03  d E =0.416073E-01  mag=    19.0288
       N       E                     dE             d eps       ncg     rms          rms(c)
DAV:   1    -0.128562821747E+03   -0.28732E-01   -0.67940E-01  1592   0.171E+00    0.139E+00
RMM:   2    -0.132402836023E+03   -0.38400E+01   -0.48536E-01  1401   0.134E+00    0.114E+01
RMM:   3    -0.129000689306E+03    0.34021E+01   -0.35198E-01  1408   0.129E+00    0.825E+00
RMM:   4    -0.128630792455E+03    0.36990E+00   -0.76525E-02  1398   0.764E-01    0.723E+00
RMM:   5    -0.128521360094E+03    0.10943E+00   -0.14097E-02  1416   0.339E-01    0.355E+00
RMM:   6    -0.128542431212E+03   -0.21071E-01   -0.54792E-03  1308   0.192E-01    0.180E+00
RMM:   7    -0.128554215180E+03   -0.11784E-01   -0.30435E-03  1226   0.146E-01    0.773E-01
RMM:   8    -0.128558719806E+03   -0.45046E-02   -0.18792E-03  1178   0.138E-01    0.185E-01
RMM:   9    -0.128558657883E+03    0.61923E-04   -0.21261E-04   900   0.485E-02
   4 F= -.12855866E+03 E0= -.12854488E+03  d E =0.171352E-01  mag=    19.0241
       N       E                     dE             d eps       ncg     rms          rms(c)
DAV:   1    -0.128573790319E+03   -0.15071E-01   -0.18394E-01  1624   0.894E-01    0.172E+00
RMM:   2    -0.133880619189E+03   -0.53068E+01   -0.70052E-01  1408   0.157E+00    0.205E+01
RMM:   3    -0.129684735704E+03    0.41959E+01   -0.36239E-01  1417   0.152E+00    0.876E+00
RMM:   4    -0.128727832163E+03    0.95690E+00   -0.18942E-01  1401   0.114E+00    0.757E+00
RMM:   5    -0.128524536581E+03    0.20330E+00   -0.28686E-02  1377   0.530E-01    0.335E+00
RMM:   6    -0.128597393146E+03   -0.72857E-01   -0.18642E-02  1390   0.338E-01    0.349E+00
RMM:   7    -0.128596443005E+03    0.95014E-03   -0.48442E-03  1316   0.240E-01    0.320E+00
RMM:   8    -0.128560810037E+03    0.35633E-01   -0.16933E-03  1206   0.129E-01    0.155E+00
RMM:   9    -0.128564935500E+03   -0.41255E-02   -0.84328E-04  1059   0.730E-02    0.144E+00
RMM:  10    -0.128561644280E+03    0.32912E-02   -0.38808E-04   971   0.567E-02    0.190E-01
RMM:  11    -0.128566357526E+03   -0.47132E-02   -0.79398E-04   970   0.727E-02    0.543E-01
RMM:  12    -0.128566277008E+03    0.80518E-04   -0.26305E-04   859   0.536E-02
   5 F= -.12856628E+03 E0= -.12855069E+03  d E =0.951605E-02  mag=    19.0305
       N       E                     dE             d eps       ncg     rms          rms(c)
DAV:   1    -0.128568853501E+03   -0.24960E-02   -0.44407E-02  1592   0.463E-01    0.148E-01
RMM:   2    -0.128574289941E+03   -0.54364E-02   -0.42355E-03  1240   0.142E-01    0.124E+00
RMM:   3    -0.128596863725E+03   -0.22574E-01   -0.15793E-03  1185   0.108E-01    0.441E+00
RMM:   4    -0.128561043361E+03    0.35820E-01   -0.42696E-03  1215   0.196E-01    0.185E+00
RMM:   5    -0.128564175063E+03   -0.31317E-02   -0.11858E-03  1039   0.851E-02    0.272E-01
RMM:   6    -0.128568926872E+03   -0.47518E-02   -0.10462E-03  1027   0.932E-02    0.199E-01
RMM:   7    -0.128569724017E+03   -0.79714E-03   -0.33285E-04   871   0.551E-02    0.401E-01
RMM:   8    -0.128569258472E+03    0.46554E-03   -0.12396E-04   771   0.301E-02    0.857E-02
RMM:   9    -0.128569402112E+03   -0.14364E-03   -0.41175E-05   691   0.189E-02    0.414E-02
RMM:  10    -0.128569511211E+03   -0.10910E-03   -0.27773E-05   698   0.164E-02    0.107E-01
RMM:  11    -0.128569528782E+03   -0.17571E-04   -0.93581E-06   609   0.111E-02
   6 F= -.12856953E+03 E0= -.12855527E+03  d E =0.626428E-02  mag=    19.0368
       N       E                     dE             d eps       ncg     rms          rms(c)
DAV:   1    -0.128570504639E+03   -0.99343E-03   -0.10945E-02  1416   0.215E-01    0.251E-01
RMM:   2    -0.129004494474E+03   -0.43399E+00   -0.15163E-02  1325   0.236E-01    0.769E+00
RMM:   3    -0.128526650995E+03    0.47784E+00   -0.17403E-02  1334   0.316E-01    0.510E-01
RMM:   4    -0.128570285969E+03   -0.43635E-01   -0.48659E-03  1226   0.197E-01    0.113E+00
RMM:   5    -0.128569143238E+03    0.11427E-02   -0.66702E-04  1059   0.774E-02    0.485E-01
RMM:   6    -0.128570041972E+03   -0.89873E-03   -0.25617E-04   928   0.530E-02    0.350E-01
RMM:   7    -0.128570387863E+03   -0.34589E-03   -0.40353E-04   898   0.605E-02    0.111E-01
RMM:   8    -0.128570488243E+03   -0.10038E-03   -0.28759E-05   716   0.208E-02    0.144E-01
RMM:   9    -0.128570446435E+03    0.41807E-04   -0.12976E-05   597   0.117E-02
   7 F= -.12857045E+03 E0= -.12855620E+03  d E =0.534663E-02  mag=    19.0389
       N       E                     dE             d eps       ncg     rms          rms(c)
DAV:   1    -0.128570875862E+03   -0.38762E-03   -0.27799E-03  1368   0.112E-01    0.193E-01
RMM:   2    -0.128875693853E+03   -0.30482E+00   -0.87893E-03  1315   0.179E-01    0.758E+00
RMM:   3    -0.128527006693E+03    0.34869E+00   -0.12178E-02  1322   0.278E-01    0.448E-01
RMM:   4    -0.128570592003E+03   -0.43585E-01   -0.46082E-03  1211   0.188E-01    0.909E-01
RMM:   5    -0.128569424095E+03    0.11679E-02   -0.38942E-04   966   0.624E-02    0.304E-01
RMM:   6    -0.128570511377E+03   -0.10873E-02   -0.16852E-04   853   0.452E-02    0.419E-02
RMM:   7    -0.128570855944E+03   -0.34457E-03   -0.13580E-04   800   0.360E-02    0.152E-01
RMM:   8    -0.128570841125E+03    0.14819E-04   -0.95697E-06   585   0.122E-02
   8 F= -.12857084E+03 E0= -.12855598E+03  d E =0.495194E-02  mag=    19.0404
       N       E                     dE             d eps       ncg     rms          rms(c)
DAV:   1    -0.128570940220E+03   -0.84276E-04   -0.82983E-04  1280   0.623E-02    0.396E-02
RMM:   2    -0.128589249185E+03   -0.18309E-01   -0.35182E-04   960   0.406E-02    0.353E+00
RMM:   3    -0.128562444562E+03    0.26805E-01   -0.33524E-03  1136   0.151E-01    0.209E-01
RMM:   4    -0.128570491940E+03   -0.80474E-02   -0.24457E-03  1037   0.118E-01    0.214E-01
RMM:   5    -0.128571012306E+03   -0.52037E-03   -0.32422E-04   851   0.514E-02    0.720E-02
RMM:   6    -0.128570987987E+03    0.24319E-04   -0.98913E-06   604   0.147E-02
   9 F= -.12857099E+03 E0= -.12855658E+03  d E =0.480508E-02  mag=    19.0412
       N       E                     dE             d eps       ncg     rms          rms(c)
DAV:   1    -0.128571079025E+03   -0.66718E-04   -0.17192E-04  1084   0.321E-02    0.113E-02
RMM:   2    -0.128571272334E+03   -0.19331E-03   -0.18099E-05   553   0.120E-02    0.314E-01
RMM:   3    -0.128570945756E+03    0.32658E-03   -0.30951E-05   670   0.194E-02    0.217E-01
RMM:   4    -0.128571088117E+03   -0.14236E-03   -0.58666E-05   672   0.230E-02    0.151E-01
RMM:   5    -0.128571044833E+03    0.43284E-04   -0.30481E-06   457   0.777E-03
  10 F= -.12857104E+03 E0= -.12855671E+03  d E =0.474823E-02  mag=    19.0420
       N       E                     dE             d eps       ncg     rms          rms(c)
DAV:   1    -0.128571125557E+03   -0.37440E-04   -0.65435E-05   984   0.216E-02    0.173E-02
RMM:   2    -0.128574335961E+03   -0.32104E-02   -0.53423E-05   729   0.165E-02    0.146E+00
RMM:   3    -0.128569017165E+03    0.53188E-02   -0.52464E-04   926   0.679E-02    0.884E-02
RMM:   4    -0.128571015813E+03   -0.19986E-02   -0.26109E-04   857   0.486E-02    0.846E-02
RMM:   5    -0.128571127047E+03   -0.11123E-03   -0.58233E-05   697   0.222E-02    0.814E-02
RMM:   6    -0.128571115478E+03    0.11569E-04   -0.15539E-05   617   0.145E-02
  11 F= -.12857112E+03 E0= -.12855672E+03  d E =0.467758E-02  mag=    19.0427
       N       E                     dE             d eps       ncg     rms          rms(c)
DAV:   1    -0.128571153183E+03   -0.26136E-04   -0.13325E-05   916   0.113E-02    0.272E-02
RMM:   2    -0.128580270500E+03   -0.91173E-02   -0.14870E-04   797   0.262E-02    0.250E+00
RMM:   3    -0.128566640418E+03    0.13630E-01   -0.14530E-03  1064   0.111E-01    0.194E-01
RMM:   4    -0.128571133096E+03   -0.44927E-02   -0.83892E-04   970   0.781E-02    0.456E-01
RMM:   5    -0.128571097677E+03    0.35419E-04   -0.35285E-04   878   0.573E-02
  12 F= -.12857110E+03 E0= -.12855760E+03  d E =0.469538E-02  mag=    19.0431
       N       E                     dE             d eps       ncg     rms          rms(c)
DAV:   1    -0.128570962512E+03    0.17058E-03   -0.13800E-04   880   0.368E-02    0.128E-01
RMM:   2    -0.128742959751E+03   -0.17200E+00   -0.41092E-03  1265   0.122E-01    0.743E+00
RMM:   3    -0.128527939233E+03    0.21502E+00   -0.80169E-03  1312   0.244E-01    0.449E-01
RMM:   4    -0.128569840169E+03   -0.41901E-01   -0.42221E-03  1175   0.172E-01    0.723E-01
RMM:   5    -0.128570975144E+03   -0.11350E-02   -0.95491E-04  1053   0.103E-01    0.278E-01
RMM:   6    -0.128570949813E+03    0.25332E-04   -0.65578E-05   780   0.358E-02
  13 F= -.12857095E+03 E0= -.12855683E+03  d E =0.484325E-02  mag=    19.0436
       N       E                     dE             d eps       ncg     rms          rms(c)
DAV:   1    -0.128571135524E+03   -0.16038E-03   -0.19941E-04   960   0.401E-02    0.107E-01
RMM:   2    -0.128637117769E+03   -0.65982E-01   -0.24955E-03  1229   0.956E-02    0.354E+00
RMM:   3    -0.128560384888E+03    0.76733E-01   -0.43720E-03  1281   0.162E-01    0.211E-01
RMM:   4    -0.128570369763E+03   -0.99849E-02   -0.14839E-03  1040   0.104E-01    0.990E-02
RMM:   5    -0.128571162899E+03   -0.79314E-03   -0.20000E-04   820   0.420E-02    0.121E-01
RMM:   6    -0.128571145826E+03    0.17074E-04   -0.17664E-05   661   0.180E-02
  14 F= -.12857115E+03 E0= -.12855652E+03  d E =0.464724E-02  mag=    19.0437
       N       E                     dE             d eps       ncg     rms          rms(c)
DAV:   1    -0.128571187538E+03   -0.24639E-04   -0.36957E-05   932   0.198E-02    0.143E-02
RMM:   2    -0.128573010249E+03   -0.18227E-02   -0.40980E-05   717   0.169E-02    0.930E-01
RMM:   3    -0.128569793907E+03    0.32163E-02   -0.30491E-04   849   0.463E-02    0.756E-02
RMM:   4    -0.128571121144E+03   -0.13272E-02   -0.23027E-04   761   0.329E-02    0.330E-02
RMM:   5    -0.128571177429E+03   -0.56285E-04   -0.13791E-05   654   0.155E-02
  15 F= -.12857118E+03 E0= -.12855675E+03  d E =0.461563E-02  mag=    19.0440
       N       E                     dE             d eps       ncg     rms          rms(c)
DAV:   1    -0.128571197462E+03   -0.76318E-04   -0.54701E-06   884   0.114E-02    0.102E-02
RMM:   2    -0.128572220521E+03   -0.10231E-02   -0.18697E-05   598   0.106E-02    0.801E-01
RMM:   3    -0.128570526587E+03    0.16939E-02   -0.30382E-04   839   0.463E-02    0.512E-02
RMM:   4    -0.128571170123E+03   -0.64354E-03   -0.14981E-04   733   0.313E-02    0.904E-02
RMM:   5    -0.128571202657E+03   -0.32533E-04   -0.47382E-05   681   0.210E-02
  16 F= -.12857120E+03 E0= -.12855696E+03  d E =0.459041E-02  mag=    19.0443
       N       E                     dE             d eps       ncg     rms          rms(c)
DAV:   1    -0.128571178995E+03   -0.88717E-05   -0.17800E-05   920   0.142E-02    0.463E-03
RMM:   2    -0.128571202092E+03   -0.23097E-04   -0.23656E-06   352   0.611E-03
  17 F= -.12857120E+03 E0= -.12855671E+03  d E =0.459097E-02  mag=    19.0444
       N       E                     dE             d eps       ncg     rms          rms(c)
DAV:   1    -0.128571201258E+03   -0.22263E-04   -0.67506E-06   864   0.721E-03    0.818E-03
RMM:   2    -0.128571887675E+03   -0.68642E-03   -0.11291E-05   501   0.833E-03    0.651E-01
RMM:   3    -0.128570756970E+03    0.11307E-02   -0.23731E-04   764   0.390E-02    0.461E-02
RMM:   4    -0.128571160276E+03   -0.40331E-03   -0.11863E-04   704   0.262E-02    0.578E-02
RMM:   5    -0.128571206087E+03   -0.45811E-04   -0.32288E-05   644   0.174E-02
  18 F= -.12857121E+03 E0= -.12855690E+03  d E =0.458698E-02  mag=    19.0446
       N       E                     dE             d eps       ncg     rms          rms(c)
DAV:   1    -0.128571196618E+03   -0.36343E-04   -0.87070E-06   892   0.107E-02    0.306E-03
RMM:   2    -0.128571210922E+03   -0.14304E-04   -0.11744E-06   266   0.452E-03
  19 F= -.12857121E+03 E0= -.12855662E+03  d E =0.458214E-02  mag=    19.0447
       N       E                     dE             d eps       ncg     rms          rms(c)
DAV:   1    -0.128571199659E+03   -0.30410E-05   -0.20950E-05   852   0.110E-02    0.468E-03
RMM:   2    -0.128571277869E+03   -0.78210E-04   -0.24422E-06   284   0.491E-03
  20 F= -.12857128E+03 E0= -.12855632E+03  d E =0.451519E-02  mag=    19.0447
       N       E                     dE             d eps       ncg     rms          rms(c)
DAV:   1    -0.128571143478E+03    0.56181E-04   -0.21427E-04   892   0.308E-02    0.174E-02
RMM:   2    -0.128572219967E+03   -0.10765E-02   -0.35238E-05   638   0.147E-02    0.803E-01
RMM:   3    -0.128570507445E+03    0.17125E-02   -0.25678E-04   803   0.412E-02    0.767E-02
RMM:   4    -0.128571172504E+03   -0.66506E-03   -0.17843E-04   757   0.338E-02    0.424E-02
RMM:   5    -0.128571198530E+03   -0.26027E-04   -0.11209E-05   551   0.116E-02
  21 F= -.12857120E+03 E0= -.12855681E+03  d E =0.459453E-02  mag=    19.0449
       N       E                     dE             d eps       ncg     rms          rms(c)
DAV:   1    -0.128571207070E+03   -0.34567E-04   -0.45550E-06   876   0.899E-03    0.183E-03
RMM:   2    -0.128571234878E+03   -0.27808E-04   -0.30342E-07   187   0.422E-03
  22 F= -.12857123E+03 E0= -.12855648E+03  d E =0.455818E-02  mag=    19.0450
       N       E                     dE             d eps       ncg     rms          rms(c)
DAV:   1    -0.128571172437E+03    0.34633E-04   -0.72061E-05   880   0.188E-02    0.862E-03
RMM:   2    -0.128571363562E+03   -0.19112E-03   -0.10597E-05   439   0.814E-03    0.293E-01
RMM:   3    -0.128571010754E+03    0.35281E-03   -0.26618E-05   636   0.183E-02    0.255E-02
RMM:   4    -0.128571198671E+03   -0.18792E-03   -0.14661E-05   535   0.119E-02    0.118E-02
RMM:   5    -0.128571208532E+03   -0.98605E-05   -0.29401E-06   409   0.701E-03
  23 F= -.12857121E+03 E0= -.12855681E+03  d E =0.458453E-02  mag=    19.0451
       N       E                     dE             d eps       ncg     rms          rms(c)
DAV:   1    -0.128571208399E+03   -0.97277E-05   -0.86821E-07   836   0.431E-03    0.366E-03
RMM:   2    -0.128571346136E+03   -0.13774E-03   -0.87289E-07   206   0.397E-03    0.274E-01
RMM:   3    -0.128571030396E+03    0.31574E-03   -0.17238E-05   559   0.143E-02    0.171E-02
RMM:   4    -0.128571190647E+03   -0.16025E-03   -0.11802E-05   506   0.102E-02    0.650E-03
RMM:   5    -0.128571209091E+03   -0.18444E-04   -0.23783E-06   340   0.552E-03
  24 F= -.12857121E+03 E0= -.12855677E+03  d E =0.458397E-02  mag=    19.0452
       N       E                     dE             d eps       ncg     rms          rms(c)
DAV:   1    -0.128571209776E+03   -0.19129E-04   -0.13284E-06   788   0.476E-03    0.823E-04
RMM:   2    -0.128571211884E+03   -0.21077E-05   -0.95311E-08   105   0.191E-03
  25 F= -.12857121E+03 E0= -.12855670E+03  d E =0.458118E-02  mag=    19.0453
       N       E                     dE             d eps       ncg     rms          rms(c)
DAV:   1    -0.128571207628E+03    0.21482E-05   -0.57734E-06   784   0.512E-03    0.361E-03
RMM:   2    -0.128571286853E+03   -0.79226E-04   -0.97953E-07   216   0.360E-03
  26 F= -.12857129E+03 E0= -.12855631E+03  d E =0.450621E-02  mag=    19.0453
       N       E                     dE             d eps       ncg     rms          rms(c)
DAV:   1    -0.128571147231E+03    0.60396E-04   -0.24699E-04   904   0.331E-02    0.255E-02
RMM:   2    -0.128576106255E+03   -0.49590E-02   -0.98955E-05   765   0.231E-02    0.182E+00
RMM:   3    -0.128568303046E+03    0.78032E-02   -0.71608E-04   978   0.799E-02    0.114E-01
RMM:   4    -0.128571077163E+03   -0.27741E-02   -0.41226E-04   900   0.598E-02    0.108E-01
RMM:   5    -0.128571205786E+03   -0.12862E-03   -0.82756E-05   742   0.263E-02    0.118E-01
RMM:   6    -0.128571177513E+03    0.28273E-04   -0.21070E-05   649   0.174E-02
  27 F= -.12857118E+03 E0= -.12855681E+03  d E =0.461555E-02  mag=    19.0454
       N       E                     dE             d eps       ncg     rms          rms(c)
DAV:   1    -0.128571204210E+03    0.15762E-05   -0.60777E-06   908   0.930E-03    0.152E-02
RMM:   2    -0.128573063800E+03   -0.18596E-02   -0.37950E-05   700   0.139E-02    0.944E-01
RMM:   3    -0.128569788709E+03    0.32751E-02   -0.31632E-04   863   0.459E-02    0.975E-02
RMM:   4    -0.128571189791E+03   -0.14011E-02   -0.25927E-04   790   0.362E-02    0.802E-02
RMM:   5    -0.128571180605E+03    0.91861E-05   -0.68216E-06   545   0.105E-02
  28 F= -.12857118E+03 E0= -.12855682E+03  d E =0.461246E-02  mag=    19.0455
       N       E                     dE             d eps       ncg     rms          rms(c)
DAV:   1    -0.128571205734E+03   -0.15943E-04   -0.57167E-06   836   0.951E-03    0.602E-03
RMM:   2    -0.128571479731E+03   -0.27400E-03   -0.48295E-06   456   0.739E-03    0.380E-01
RMM:   3    -0.128570966428E+03    0.51330E-03   -0.33050E-05   619   0.191E-02    0.324E-02
RMM:   4    -0.128571179634E+03   -0.21321E-03   -0.21068E-05   571   0.132E-02    0.147E-02
RMM:   5    -0.128571208607E+03   -0.28973E-04   -0.42153E-06   459   0.835E-03
  29 F= -.12857121E+03 E0= -.12855678E+03  d E =0.458445E-02  mag=    19.0455
       N       E                     dE             d eps       ncg     rms          rms(c)
DAV:   1    -0.128571211821E+03   -0.32187E-04   -0.10195E-06   832   0.477E-03    0.709E-03
RMM:   2    -0.128571730754E+03   -0.51893E-03   -0.77465E-06   430   0.690E-03    0.523E-01
RMM:   3    -0.128570767997E+03    0.96276E-03   -0.73056E-05   705   0.262E-02    0.331E-02
RMM:   4    -0.128571179040E+03   -0.41104E-03   -0.56172E-05   655   0.194E-02    0.197E-02
RMM:   5    -0.128571206680E+03   -0.27640E-04   -0.32792E-06   438   0.773E-03
  30 F= -.12857121E+03 E0= -.12855680E+03  d E =0.458638E-02  mag=    19.0456
       N       E                     dE             d eps       ncg     rms          rms(c)
DAV:   1    -0.128571210934E+03   -0.31895E-04   -0.12567E-06   852   0.552E-03    0.112E-03
RMM:   2    -0.128571214967E+03   -0.40327E-05   -0.10773E-07   107   0.265E-03
  31 F= -.12857121E+03 E0= -.12855668E+03  d E =0.457809E-02  mag=    19.0456
       N       E                     dE             d eps       ncg     rms          rms(c)
DAV:   1    -0.128571209352E+03    0.15824E-05   -0.13140E-05   816   0.854E-03    0.114E-02
RMM:   2    -0.128572501243E+03   -0.12919E-02   -0.22318E-05   589   0.106E-02    0.904E-01
RMM:   3    -0.128570303193E+03    0.21980E-02   -0.31988E-04   842   0.487E-02    0.568E-02
RMM:   4    -0.128571177908E+03   -0.87471E-03   -0.16365E-04   766   0.339E-02    0.104E-01
RMM:   5    -0.128571209886E+03   -0.31978E-04   -0.57230E-05   692   0.226E-02
  32 F= -.12857121E+03 E0= -.12855695E+03  d E =0.458318E-02  mag=    19.0456
       N       E                     dE             d eps       ncg     rms          rms(c)
DAV:   1    -0.128571191465E+03   -0.13557E-04   -0.20763E-05   892   0.145E-02    0.124E-02
RMM:   2    -0.128572455449E+03   -0.12640E-02   -0.24716E-05   650   0.124E-02    0.787E-01
RMM:   3    -0.128570149425E+03    0.23060E-02   -0.21258E-04   807   0.387E-02    0.553E-02
RMM:   4    -0.128571176750E+03   -0.10273E-02   -0.17433E-04   745   0.292E-02    0.553E-02
RMM:   5    -0.128571209621E+03   -0.32870E-04   -0.12716E-05   620   0.146E-02
  33 F= -.12857121E+03 E0= -.12855680E+03  d E =0.458344E-02  mag=    19.0457
       N       E                     dE             d eps       ncg     rms          rms(c)
DAV:   1    -0.128571212309E+03   -0.35559E-04   -0.19166E-06   832   0.700E-03    0.942E-03
RMM:   2    -0.128572120852E+03   -0.90854E-03   -0.15130E-05   539   0.936E-03    0.753E-01
RMM:   3    -0.128570617156E+03    0.15037E-02   -0.28445E-04   814   0.439E-02    0.482E-02
RMM:   4    -0.128571175577E+03   -0.55842E-03   -0.14456E-04   728   0.301E-02    0.777E-02
RMM:   5    -0.128571212214E+03   -0.36637E-04   -0.40832E-05   671   0.195E-02
  34 F= -.12857121E+03 E0= -.12855691E+03  d E =0.458085E-02  mag=    19.0457
       N       E                     dE             d eps       ncg     rms          rms(c)
DAV:   1    -0.128571201704E+03   -0.26127E-04   -0.12829E-05   896   0.122E-02    0.101E-02
RMM:   2    -0.128572066484E+03   -0.86478E-03   -0.16326E-05   566   0.103E-02    0.661E-01
RMM:   3    -0.128570389199E+03    0.16773E-02   -0.15344E-04   785   0.332E-02    0.407E-02
RMM:   4    -0.128571176114E+03   -0.78691E-03   -0.12594E-04   702   0.244E-02    0.581E-02
RMM:   5    -0.128571211469E+03   -0.35355E-04   -0.13438E-05   617   0.143E-02
  35 F= -.12857121E+03 E0= -.12855673E+03  d E =0.458159E-02  mag=    19.0457
       N       E                     dE             d eps       ncg     rms          rms(c)
DAV:   1    -0.128571209964E+03   -0.33850E-04   -0.34293E-06   824   0.736E-03    0.295E-03
RMM:   2    -0.128571258153E+03   -0.48189E-04   -0.94062E-07   228   0.421E-03
  36 F= -.12857126E+03 E0= -.12855730E+03  d E =0.453491E-02  mag=    19.0458
       N       E                     dE             d eps       ncg     rms          rms(c)
DAV:   1    -0.128571164916E+03    0.45048E-04   -0.94209E-05   848   0.231E-02    0.140E-02
RMM:   2    -0.128571970658E+03   -0.80574E-03   -0.22026E-05   597   0.123E-02    0.692E-01
RMM:   3    -0.128570736121E+03    0.12345E-02   -0.27638E-04   805   0.411E-02    0.964E-02
RMM:   4    -0.128571201630E+03   -0.46551E-03   -0.17218E-04   743   0.325E-02    0.279E-02
RMM:   5    -0.128571209020E+03   -0.73900E-05   -0.69404E-06   514   0.104E-02
  37 F= -.12857121E+03 E0= -.12855679E+03  d E =0.458404E-02  mag=    19.0458
       N       E                     dE             d eps       ncg     rms          rms(c)
DAV:   1    -0.128571212229E+03   -0.10598E-04   -0.17058E-06   852   0.688E-03    0.473E-03
RMM:   2    -0.128571441543E+03   -0.22931E-03   -0.32338E-06   355   0.587E-03    0.352E-01
RMM:   3    -0.128570977114E+03    0.46443E-03   -0.31501E-05   647   0.196E-02    0.235E-02
RMM:   4    -0.128571194588E+03   -0.21747E-03   -0.22253E-05   590   0.140E-02    0.247E-02
RMM:   5    -0.128571212173E+03   -0.17585E-04   -0.44001E-06   450   0.819E-03
  38 F= -.12857121E+03 E0= -.12855680E+03  d E =0.458089E-02  mag=    19.0458
       N       E                     dE             d eps       ncg     rms          rms(c)
DAV:   1    -0.128571212556E+03   -0.17968E-04   -0.69610E-07   788   0.434E-03    0.399E-03
RMM:   2    -0.128571374970E+03   -0.16241E-03   -0.12991E-06   229   0.432E-03    0.311E-01
RMM:   3    -0.128571069604E+03    0.30537E-03   -0.70920E-05   655   0.213E-02    0.201E-02
RMM:   4    -0.128571207463E+03   -0.13786E-03   -0.41098E-05   586   0.154E-02    0.316E-02
RMM:   5    -0.128571211218E+03   -0.37549E-05   -0.72987E-06   485   0.892E-03
  39 F= -.12857121E+03 E0= -.12855680E+03  d E =0.458184E-02  mag=    19.0458
       N       E                     dE             d eps       ncg     rms          rms(c)
DAV:   1    -0.128571212319E+03   -0.48562E-05   -0.13586E-06   864   0.474E-03    0.105E-02
RMM:   2    -0.128572299517E+03   -0.10872E-02   -0.19513E-05   583   0.100E-02    0.740E-01
RMM:   3    -0.128570234783E+03    0.20647E-02   -0.18899E-04   801   0.367E-02    0.498E-02
RMM:   4    -0.128571171342E+03   -0.93656E-03   -0.15396E-04   727   0.273E-02    0.232E-02
RMM:   5    -0.128571210477E+03   -0.39134E-04   -0.73452E-06   568   0.116E-02
  40 F= -.12857121E+03 E0= -.12855682E+03  d E =0.458259E-02  mag=    19.0458
       N       E                     dE             d eps       ncg     rms          rms(c)
DAV:   1    -0.128571211179E+03   -0.39837E-04   -0.15304E-06   840   0.598E-03    0.141E-03
RMM:   2    -0.128571219289E+03   -0.81098E-05   -0.16997E-07   143   0.307E-03
  41 F= -.12857122E+03 E0= -.12855698E+03  d E =0.457377E-02  mag=    19.0458
       N       E                     dE             d eps       ncg     rms          rms(c)
DAV:   1    -0.128571193638E+03    0.17541E-04   -0.96502E-06   820   0.688E-03    0.176E-02
RMM:   2    -0.128574577307E+03   -0.33837E-02   -0.58588E-05   733   0.164E-02    0.149E+00
RMM:   3    -0.128568984167E+03    0.55931E-02   -0.54749E-04   927   0.698E-02    0.905E-02
RMM:   4    -0.128571077479E+03   -0.20933E-02   -0.25303E-04   851   0.483E-02    0.127E-01
RMM:   5    -0.128571225774E+03   -0.14830E-03   -0.10984E-04   752   0.278E-02    0.127E-01
RMM:   6    -0.128571171534E+03    0.54241E-04   -0.65613E-06   555   0.122E-02
  42 F= -.12857117E+03 E0= -.12855685E+03  d E =0.462153E-02  mag=    19.0458
       N       E                     dE             d eps       ncg     rms          rms(c)
DAV:   1    -0.128571192901E+03    0.32874E-04   -0.87646E-06   844   0.893E-03    0.939E-03
RMM:   2    -0.128571794697E+03   -0.60180E-03   -0.12325E-05   511   0.941E-03    0.553E-01
RMM:   3    -0.128570674801E+03    0.11199E-02   -0.90291E-05   731   0.276E-02    0.645E-02
RMM:   4    -0.128571199832E+03   -0.52503E-03   -0.77598E-05   695   0.227E-02    0.416E-02
RMM:   5    -0.128571205534E+03   -0.57020E-05   -0.25810E-06   422   0.718E-03
  43 F= -.12857121E+03 E0= -.12855682E+03  d E =0.458753E-02  mag=    19.0459
       N       E                     dE             d eps       ncg     rms          rms(c)
DAV:   1    -0.128571210833E+03   -0.11001E-04   -0.22380E-06   864   0.618E-03    0.650E-03
RMM:   2    -0.128571606308E+03   -0.39548E-03   -0.58527E-06   428   0.685E-03    0.457E-01
RMM:   3    -0.128570918926E+03    0.68738E-03   -0.48475E-05   671   0.230E-02    0.327E-02
RMM:   4    -0.128571178810E+03   -0.25988E-03   -0.31430E-05   625   0.160E-02    0.229E-02
RMM:   5    -0.128571210812E+03   -0.32002E-04   -0.63135E-06   505   0.994E-03
  44 F= -.12857121E+03 E0= -.12855677E+03  d E =0.458225E-02  mag=    19.0459
       N       E                     dE             d eps       ncg     rms          rms(c)
DAV:   1    -0.128571212760E+03   -0.33951E-04   -0.10843E-06   792   0.485E-03    0.366E-03
RMM:   2    -0.128571356017E+03   -0.14326E-03   -0.88636E-07   198   0.407E-03    0.281E-01
RMM:   3    -0.128571023683E+03    0.33233E-03   -0.19077E-05   568   0.149E-02    0.170E-02
RMM:   4    -0.128571197464E+03   -0.17378E-03   -0.13313E-05   515   0.108E-02    0.774E-03
RMM:   5    -0.128571210974E+03   -0.13510E-04   -0.14961E-06   300   0.491E-03
  45 F= -.12857121E+03 E0= -.12855679E+03  d E =0.458209E-02  mag=    19.0459
       N       E                     dE             d eps       ncg     rms          rms(c)
DAV:   1    -0.128571212791E+03   -0.15327E-04   -0.82975E-07   800   0.418E-03    0.283E-03
RMM:   2    -0.128571298952E+03   -0.86161E-04   -0.41887E-07   163   0.322E-03
  46 F= -.12857130E+03 E0= -.12855751E+03  d E =0.449411E-02  mag=    19.0459
       N       E                     dE             d eps       ncg     rms          rms(c)
DAV:   1    -0.128571119265E+03    0.93526E-04   -0.16114E-04   868   0.297E-02    0.205E-02
RMM:   2    -0.128574370948E+03   -0.32517E-02   -0.61887E-05   738   0.184E-02    0.144E+00
RMM:   3    -0.128569142726E+03    0.52282E-02   -0.57298E-04   927   0.703E-02    0.900E-02
RMM:   4    -0.128571108654E+03   -0.19659E-02   -0.25697E-04   850   0.477E-02    0.144E-01
RMM:   5    -0.128571207107E+03   -0.98453E-04   -0.11483E-04   765   0.318E-02
  47 F= -.12857121E+03 E0= -.12855700E+03  d E =0.458595E-02  mag=    19.0459
       N       E                     dE             d eps       ncg     rms          rms(c)
DAV:   1    -0.128571182553E+03   -0.73899E-04   -0.36131E-05   868   0.181E-02    0.151E-02
RMM:   2    -0.128572858154E+03   -0.16756E-02   -0.33848E-05   695   0.150E-02    0.894E-01
RMM:   3    -0.128569894226E+03    0.29639E-02   -0.27939E-04   842   0.439E-02    0.627E-02
RMM:   4    -0.128571175415E+03   -0.12812E-02   -0.22276E-04   763   0.328E-02    0.670E-02
RMM:   5    -0.128571211595E+03   -0.36180E-04   -0.17734E-05   642   0.170E-02
  48 F= -.12857121E+03 E0= -.12855673E+03  d E =0.458147E-02  mag=    19.0459
       N       E                     dE             d eps       ncg     rms          rms(c)
DAV:   1    -0.128571210181E+03   -0.34767E-04   -0.40225E-06   872   0.896E-03    0.434E-03
RMM:   2    -0.128571368609E+03   -0.15843E-03   -0.26375E-06   328   0.563E-03    0.293E-01
RMM:   3    -0.128571010734E+03    0.35788E-03   -0.22347E-05   589   0.160E-02    0.189E-02
RMM:   4    -0.128571198477E+03   -0.18774E-03   -0.15316E-05   532   0.117E-02    0.289E-02
RMM:   5    -0.128571207486E+03   -0.90083E-05   -0.11216E-06   285   0.508E-03
  49 F= -.12857121E+03 E0= -.12855679E+03  d E =0.458558E-02  mag=    19.0459
       N       E                     dE             d eps       ncg     rms          rms(c)
DAV:   1    -0.128571212430E+03   -0.13952E-04   -0.12676E-06   852   0.506E-03    0.236E-03
RMM:   2    -0.128571267188E+03   -0.54759E-04   -0.21566E-07   139   0.308E-03
  50 F= -.12857127E+03 E0= -.12855734E+03  d E =0.452587E-02  mag=    19.0459
       N       E                     dE             d eps       ncg     rms          rms(c)
DAV:   1    -0.128571161203E+03    0.51227E-04   -0.10589E-04   872   0.240E-02    0.160E-02
RMM:   2    -0.128572870253E+03   -0.17091E-02   -0.36090E-05   670   0.147E-02    0.103E+00
RMM:   3    -0.128570026003E+03    0.28442E-02   -0.39316E-04   881   0.553E-02    0.701E-02
RMM:   4    -0.128571159368E+03   -0.11334E-02   -0.17618E-04   779   0.370E-02    0.760E-02
RMM:   5    -0.128571211971E+03   -0.52603E-04   -0.55943E-05   695   0.234E-02
  51 F= -.12857121E+03 E0= -.12855686E+03  d E =0.458109E-02  mag=    19.0459
       N       E                     dE             d eps       ncg     rms          rms(c)
DAV:   1    -0.128571210233E+03   -0.50865E-04   -0.10631E-05   884   0.110E-02    0.232E-02
RMM:   2    -0.128575930019E+03   -0.47198E-02   -0.10101E-04   762   0.216E-02    0.141E+00
RMM:   3    -0.128568485826E+03    0.74442E-02   -0.67632E-04   946   0.686E-02    0.102E-01
RMM:   4    -0.128571101616E+03   -0.26158E-02   -0.46532E-04   856   0.516E-02    0.676E-02
RMM:   5    -0.128571198628E+03   -0.97013E-04   -0.23249E-05   681   0.196E-02
  52 F= -.12857120E+03 E0= -.12855691E+03  d E =0.459443E-02  mag=    19.0459
       N       E                     dE             d eps       ncg     rms          rms(c)
DAV:   1    -0.128571196463E+03   -0.94848E-04   -0.81758E-06   880   0.109E-02    0.137E-02
RMM:   2    -0.128573164922E+03   -0.19685E-02   -0.36365E-05   702   0.145E-02    0.112E+00
RMM:   3    -0.128569811034E+03    0.33539E-02   -0.41023E-04   895   0.579E-02    0.735E-02
RMM:   4    -0.128571147639E+03   -0.13366E-02   -0.18267E-04   797   0.386E-02    0.140E-01
RMM:   5    -0.128571199878E+03   -0.52238E-04   -0.91635E-05   736   0.278E-02
  53 F= -.12857120E+03 E0= -.12855700E+03  d E =0.459318E-02  mag=    19.0459
       N       E                     dE             d eps       ncg     rms          rms(c)
DAV:   1    -0.128571180522E+03   -0.32883E-04   -0.32070E-05   848   0.174E-02    0.867E-03
RMM:   2    -0.128571466007E+03   -0.28548E-03   -0.73323E-06   507   0.923E-03    0.370E-01
RMM:   3    -0.128570969556E+03    0.49645E-03   -0.31623E-05   637   0.193E-02    0.377E-02
RMM:   4    -0.128571201330E+03   -0.23177E-03   -0.24274E-05   604   0.151E-02    0.247E-02
RMM:   5    -0.128571212679E+03   -0.11349E-04   -0.46219E-06   435   0.815E-03
  54 F= -.12857121E+03 E0= -.12855678E+03  d E =0.458038E-02  mag=    19.0459
       N       E                     dE             d eps       ncg     rms          rms(c)
DAV:   1    -0.128571212466E+03   -0.11135E-04   -0.92039E-07   800   0.520E-03    0.193E-03
RMM:   2    -0.128571243798E+03   -0.31332E-04   -0.96025E-08   125   0.280E-03
  55 F= -.12857124E+03 E0= -.12855647E+03  d E =0.454926E-02  mag=    19.0459
       N       E                     dE             d eps       ncg     rms          rms(c)
DAV:   1    -0.128571172129E+03    0.40337E-04   -0.86524E-05   872   0.200E-02    0.878E-03
RMM:   2    -0.128571220584E+03   -0.48456E-04   -0.90543E-06   413   0.761E-03
  56 F= -.12857122E+03 E0= -.12855658E+03  d E =0.457248E-02  mag=    19.0459
       N       E                     dE             d eps       ncg     rms          rms(c)
DAV:   1    -0.128571205473E+03   -0.33344E-04   -0.71543E-05   808   0.168E-02    0.612E-02
RMM:   2    -0.128613112799E+03   -0.41907E-01   -0.85965E-04  1124   0.563E-02    0.502E+00
RMM:   3    -0.128550397532E+03    0.62715E-01   -0.39543E-03  1224   0.178E-01    0.344E-01
RMM:   4    -0.128570651678E+03   -0.20254E-01   -0.28525E-03  1133   0.141E-01    0.403E-01
RMM:   5    -0.128571149248E+03   -0.49757E-03   -0.53664E-04   949   0.733E-02    0.143E-01
RMM:   6    -0.128571159773E+03   -0.10526E-04   -0.24455E-05   710   0.226E-02
  57 F= -.12857116E+03 E0= -.12855660E+03  d E =0.463329E-02  mag=    19.0459
       N       E                     dE             d eps       ncg     rms          rms(c)
DAV:   1    -0.128571213871E+03   -0.64623E-04   -0.14751E-05   892   0.174E-02    0.463E-02
RMM:   2    -0.128586667885E+03   -0.15454E-01   -0.46185E-04  1025   0.419E-02    0.227E+00
RMM:   3    -0.128565414884E+03    0.21253E-01   -0.16010E-03  1107   0.105E-01    0.191E-01
RMM:   4    -0.128571065229E+03   -0.56503E-02   -0.93680E-04   957   0.792E-02    0.174E-01
RMM:   5    -0.128571188924E+03   -0.12370E-03   -0.82095E-05   766   0.345E-02    0.433E-02
RMM:   6    -0.128571206057E+03   -0.17132E-04   -0.13656E-05   616   0.142E-02
  58 F= -.12857121E+03 E0= -.12855685E+03  d E =0.458701E-02  mag=    19.0458
       N       E                     dE             d eps       ncg     rms          rms(c)
DAV:   1    -0.128571209303E+03   -0.20379E-04   -0.81385E-06   924   0.112E-02    0.151E-02
RMM:   2    -0.128573333665E+03   -0.21244E-02   -0.41780E-05   707   0.149E-02    0.100E+00
RMM:   3    -0.128569623680E+03    0.37100E-02   -0.35593E-04   856   0.489E-02    0.663E-02
RMM:   4    -0.128571165213E+03   -0.15415E-02   -0.27812E-04   778   0.368E-02    0.621E-02
RMM:   5    -0.128571206684E+03   -0.41471E-04   -0.17758E-05   654   0.173E-02
  59 F= -.12857121E+03 E0= -.12855683E+03  d E =0.458638E-02  mag=    19.0458
       N       E                     dE             d eps       ncg     rms          rms(c)
DAV:   1    -0.128571210387E+03   -0.45174E-04   -0.25108E-06   876   0.801E-03    0.104E-02
RMM:   2    -0.128572325717E+03   -0.11153E-02   -0.19343E-05   597   0.105E-02    0.837E-01
RMM:   3    -0.128570464971E+03    0.18607E-02   -0.31413E-04   843   0.473E-02    0.508E-02
RMM:   4    -0.128571186143E+03   -0.72117E-03   -0.16226E-04   747   0.329E-02    0.105E-01
RMM:   5    -0.128571205379E+03   -0.19236E-04   -0.51174E-05   686   0.214E-02
  60 F= -.12857121E+03 E0= -.12855695E+03  d E =0.458768E-02  mag=    19.0458
       N       E                     dE             d eps       ncg     rms          rms(c)
DAV:   1    -0.128571190564E+03   -0.44214E-05   -0.22813E-05   876   0.147E-02    0.160E-02
RMM:   2    -0.128573379182E+03   -0.21886E-02   -0.43320E-05   722   0.156E-02    0.101E+00
RMM:   3    -0.128569607670E+03    0.37715E-02   -0.36095E-04   874   0.494E-02    0.705E-02
RMM:   4    -0.128571172809E+03   -0.15651E-02   -0.28446E-04   789   0.375E-02    0.656E-02
RMM:   5    -0.128571207483E+03   -0.34675E-04   -0.17699E-05   656   0.174E-02
  61 F= -.12857121E+03 E0= -.12855682E+03  d E =0.458558E-02  mag=    19.0458
       N       E                     dE             d eps       ncg     rms          rms(c)
DAV:   1    -0.128571211219E+03   -0.38411E-04   -0.24811E-06   856   0.805E-03    0.841E-03
RMM:   2    -0.128571906066E+03   -0.69485E-03   -0.11974E-05   518   0.882E-03    0.654E-01
RMM:   3    -0.128570764301E+03    0.11418E-02   -0.24602E-04   803   0.402E-02    0.418E-02
RMM:   4    -0.128571176832E+03   -0.41253E-03   -0.12886E-04   714   0.276E-02    0.658E-02
RMM:   5    -0.128571211270E+03   -0.34438E-04   -0.30687E-05   645   0.172E-02
  62 F= -.12857121E+03 E0= -.12855688E+03  d E =0.458179E-02  mag=    19.0459
       N       E                     dE             d eps       ncg     rms          rms(c)
DAV:   1    -0.128571207319E+03   -0.30486E-04   -0.85674E-06   900   0.103E-02    0.117E-02
RMM:   2    -0.128572452404E+03   -0.12451E-02   -0.23496E-05   633   0.115E-02    0.786E-01
RMM:   3    -0.128570149897E+03    0.23025E-02   -0.21328E-04   813   0.388E-02    0.531E-02
RMM:   4    -0.128571175332E+03   -0.10254E-02   -0.17433E-04   742   0.291E-02    0.511E-02
RMM:   5    -0.128571210250E+03   -0.34918E-04   -0.11975E-05   613   0.143E-02
  63 F= -.12857121E+03 E0= -.12855681E+03  d E =0.458281E-02  mag=    19.0459
       N       E                     dE             d eps       ncg     rms          rms(c)
DAV:   1    -0.128571212259E+03   -0.36927E-04   -0.17325E-06   840   0.670E-03    0.948E-03
RMM:   2    -0.128572145210E+03   -0.93295E-03   -0.15588E-05   542   0.946E-03    0.763E-01
RMM:   3    -0.128570600314E+03    0.15449E-02   -0.28876E-04   819   0.444E-02    0.477E-02
RMM:   4    -0.128571178153E+03   -0.57784E-03   -0.14852E-04   727   0.306E-02    0.853E-02
RMM:   5    -0.128571211496E+03   -0.33343E-04   -0.42499E-05   671   0.198E-02
  64 F= -.12857121E+03 E0= -.12855692E+03  d E =0.458157E-02  mag=    19.0459
       N       E                     dE             d eps       ncg     rms          rms(c)
DAV:   1    -0.128571199781E+03   -0.21628E-04   -0.14510E-05   884   0.126E-02    0.118E-02
RMM:   2    -0.128572392460E+03   -0.11927E-02   -0.22976E-05   628   0.118E-02    0.768E-01
RMM:   3    -0.128570183592E+03    0.22089E-02   -0.20253E-04   813   0.379E-02    0.474E-02
RMM:   4    -0.128571174437E+03   -0.99085E-03   -0.16321E-04   734   0.277E-02    0.617E-02
RMM:   5    -0.128571211506E+03   -0.37069E-04   -0.15569E-05   630   0.157E-02
  65 F= -.12857121E+03 E0= -.12855673E+03  d E =0.458156E-02  mag=    19.0459
       N       E                     dE             d eps       ncg     rms          rms(c)
DAV:   1    -0.128571210539E+03   -0.36102E-04   -0.32115E-06   828   0.757E-03    0.495E-03
RMM:   2    -0.128571439277E+03   -0.22874E-03   -0.33828E-06   338   0.578E-03    0.351E-01
RMM:   3    -0.128570980499E+03    0.45878E-03   -0.30481E-05   622   0.185E-02    0.234E-02
RMM:   4    -0.128571194435E+03   -0.21394E-03   -0.22176E-05   583   0.137E-02    0.329E-02
RMM:   5    -0.128571206176E+03   -0.11742E-04   -0.16088E-06   320   0.569E-03
  66 F= -.12857121E+03 E0= -.12855679E+03  d E =0.458689E-02  mag=    19.0459
       N       E                     dE             d eps       ncg     rms          rms(c)
DAV:   1    -0.128571212051E+03   -0.17617E-04   -0.14196E-06   860   0.541E-03    0.118E-03
RMM:   2    -0.128571216903E+03   -0.48518E-05   -0.57188E-08    92   0.242E-03
  67 F= -.12857122E+03 E0= -.12855693E+03  d E =0.457616E-02  mag=    19.0459
       N       E                     dE             d eps       ncg     rms          rms(c)
DAV:   1    -0.128571201633E+03    0.10418E-04   -0.10291E-05   824   0.727E-03    0.645E-03
RMM:   2    -0.128571223762E+03   -0.22129E-04   -0.34943E-06   316   0.518E-03
  68 F= -.12857122E+03 E0= -.12855672E+03  d E =0.456930E-02  mag=    19.0459
       N       E                     dE             d eps       ncg     rms          rms(c)
DAV:   1    -0.128571259053E+03   -0.57420E-04   -0.18339E-04   848   0.324E-02    0.173E-01
RMM:   2    -0.128822357369E+03   -0.25110E+00   -0.67039E-03  1312   0.155E-01    0.753E+00
RMM:   3    -0.128527939167E+03    0.29442E+00   -0.10782E-02  1322   0.265E-01    0.711E-01
RMM:   4    -0.128571523909E+03   -0.43585E-01   -0.50544E-03  1215   0.197E-01    0.794E-01
RMM:   5    -0.128570401895E+03    0.11220E-02   -0.43270E-04   947   0.647E-02    0.376E-01
RMM:   6    -0.128570950615E+03   -0.54872E-03   -0.94905E-05   788   0.349E-02    0.236E-01
RMM:   7    -0.128571027120E+03   -0.76505E-04   -0.41559E-05   736   0.216E-02
  69 F= -.12857103E+03 E0= -.12855638E+03  d E =0.476594E-02  mag=    19.0462
       N       E                     dE             d eps       ncg     rms          rms(c)
DAV:   1    -0.128571207524E+03   -0.25691E-03   -0.71907E-05   988   0.282E-02    0.176E-01
RMM:   2    -0.128711743720E+03   -0.14054E+00   -0.74930E-03  1312   0.163E-01    0.372E+00
RMM:   3    -0.128560529497E+03    0.15121E+00   -0.83121E-03  1315   0.207E-01    0.401E-01
RMM:   4    -0.128569596338E+03   -0.90668E-02   -0.14258E-03  1101   0.108E-01    0.942E-02
RMM:   5    -0.128571378367E+03   -0.17820E-02   -0.45470E-04   904   0.553E-02    0.340E-01
RMM:   6    -0.128571147677E+03    0.23069E-03   -0.14326E-04   815   0.406E-02    0.226E-01
RMM:   7    -0.128571076607E+03    0.71069E-04   -0.14144E-05   657   0.159E-02
  70 F= -.12857108E+03 E0= -.12855671E+03  d E =0.471645E-02  mag=    19.0459
       N       E                     dE             d eps       ncg     rms          rms(c)
DAV:   1    -0.128571207098E+03   -0.59422E-04   -0.44102E-05   960   0.200E-02    0.695E-03
RMM:   2    -0.128571407787E+03   -0.20069E-03   -0.64166E-06   541   0.900E-03    0.341E-01
RMM:   3    -0.128571053787E+03    0.35400E-03   -0.78072E-05   665   0.228E-02    0.518E-02
RMM:   4    -0.128571209859E+03   -0.15607E-03   -0.62181E-05   637   0.193E-02    0.298E-02
RMM:   5    -0.128571211927E+03   -0.20673E-05   -0.57401E-06   460   0.876E-03
  71 F= -.12857121E+03 E0= -.12855670E+03  d E =0.458114E-02  mag=    19.0459
       N       E                     dE             d eps       ncg     rms          rms(c)
DAV:   1    -0.128571209204E+03    0.65543E-06   -0.77689E-06   896   0.877E-03    0.231E-03
RMM:   2    -0.128571225010E+03   -0.15806E-04   -0.43937E-07   188   0.355E-03
  72 F= -.12857123E+03 E0= -.12855706E+03  d E =0.456805E-02  mag=    19.0459
       N       E                     dE             d eps       ncg     rms          rms(c)
DAV:   1    -0.128571182254E+03    0.26950E-04   -0.36092E-05   844   0.143E-02    0.830E-03
RMM:   2    -0.128571367815E+03   -0.18556E-03   -0.64279E-06   419   0.712E-03    0.290E-01
RMM:   3    -0.128571016056E+03    0.35176E-03   -0.21499E-05   603   0.162E-02    0.496E-02
RMM:   4    -0.128571206723E+03   -0.19067E-03   -0.16284E-05   573   0.131E-02    0.641E-03
RMM:   5    -0.128571211781E+03   -0.50582E-05   -0.17743E-06   367   0.611E-03
  73 F= -.12857121E+03 E0= -.12855676E+03  d E =0.458128E-02  mag=    19.0459
       N       E                     dE             d eps       ncg     rms          rms(c)
DAV:   1    -0.128571211300E+03   -0.45768E-05   -0.18112E-06   792   0.547E-03    0.186E-03
RMM:   2    -0.128571240523E+03   -0.29223E-04   -0.17135E-07   133   0.280E-03
  74 F= -.12857124E+03 E0= -.12855717E+03  d E =0.455254E-02  mag=    19.0459
       N       E                     dE             d eps       ncg     rms          rms(c)
DAV:   1    -0.128571170646E+03    0.40654E-04   -0.51553E-05   836   0.174E-02    0.187E-02
RMM:   2    -0.128574336599E+03   -0.31660E-02   -0.61598E-05   730   0.178E-02    0.143E+00
RMM:   3    -0.128569183196E+03    0.51534E-02   -0.56713E-04   930   0.702E-02    0.120E-01
RMM:   4    -0.128571057647E+03   -0.18745E-02   -0.22499E-04   833   0.446E-02    0.106E-01
RMM:   5    -0.128571215829E+03   -0.15818E-03   -0.12130E-04   768   0.328E-02    0.531E-02
RMM:   6    -0.128571196695E+03    0.19134E-04   -0.42650E-06   455   0.908E-03
  75 F= -.12857120E+03 E0= -.12855678E+03  d E =0.459637E-02  mag=    19.0459
       N       E                     dE             d eps       ncg     rms          rms(c)
DAV:   1    -0.128571211294E+03    0.45347E-05   -0.27825E-06   864   0.670E-03    0.160E-02
RMM:   2    -0.128573552938E+03   -0.23416E-02   -0.46245E-05   715   0.150E-02    0.105E+00
RMM:   3    -0.128569533223E+03    0.40197E-02   -0.38612E-04   876   0.512E-02    0.782E-02
RMM:   4    -0.128571166422E+03   -0.16332E-02   -0.30401E-04   793   0.388E-02    0.414E-02
RMM:   5    -0.128571207675E+03   -0.41253E-04   -0.12222E-05   624   0.150E-02
  76 F= -.12857121E+03 E0= -.12855685E+03  d E =0.458539E-02  mag=    19.0459
       N       E                     dE             d eps       ncg     rms          rms(c)
DAV:   1    -0.128571209017E+03   -0.42595E-04   -0.33968E-06   888   0.798E-03    0.272E-03
RMM:   2    -0.128571238906E+03   -0.29889E-04   -0.79839E-07   235   0.465E-03
  77 F= -.12857124E+03 E0= -.12855649E+03  d E =0.455416E-02  mag=    19.0459
       N       E                     dE             d eps       ncg     rms          rms(c)
DAV:   1    -0.128571181323E+03    0.27694E-04   -0.94803E-05   876   0.223E-02    0.210E-02
RMM:   2    -0.128574833616E+03   -0.36523E-02   -0.70835E-05   742   0.189E-02    0.155E+00
RMM:   3    -0.128568776975E+03    0.60566E-02   -0.52494E-04   933   0.694E-02    0.101E-01
RMM:   4    -0.128571084982E+03   -0.23080E-02   -0.27914E-04   870   0.511E-02    0.818E-02
RMM:   5    -0.128571215546E+03   -0.13056E-03   -0.65074E-05   713   0.233E-02    0.102E-01
RMM:   6    -0.128571181509E+03    0.34037E-04   -0.15849E-05   611   0.148E-02
  78 F= -.12857118E+03 E0= -.12855680E+03  d E =0.461155E-02  mag=    19.0459
       N       E                     dE             d eps       ncg     rms          rms(c)
DAV:   1    -0.128571208372E+03    0.71745E-05   -0.40608E-06   888   0.795E-03    0.119E-02
RMM:   2    -0.128572402521E+03   -0.11941E-02   -0.23322E-05   619   0.112E-02    0.772E-01
RMM:   3    -0.128570177181E+03    0.22253E-02   -0.20699E-04   818   0.380E-02    0.722E-02
RMM:   4    -0.128571187718E+03   -0.10105E-02   -0.17212E-04   743   0.296E-02    0.592E-02
RMM:   5    -0.128571194257E+03   -0.65391E-05   -0.45741E-06   515   0.921E-03
  79 F= -.12857119E+03 E0= -.12855682E+03  d E =0.459880E-02  mag=    19.0459
       N       E                     dE             d eps       ncg     rms          rms(c)
DAV:   1    -0.128571209164E+03   -0.21446E-04   -0.41794E-06   848   0.833E-03    0.770E-03
RMM:   2    -0.128571755287E+03   -0.54612E-03   -0.90626E-06   512   0.839E-03    0.533E-01
RMM:   3    -0.128570743082E+03    0.10122E-02   -0.77560E-05   702   0.265E-02    0.354E-02
RMM:   4    -0.128571178527E+03   -0.43544E-03   -0.58531E-05   655   0.193E-02    0.259E-02
RMM:   5    -0.128571209452E+03   -0.30925E-04   -0.63320E-06   529   0.104E-02
  80 F= -.12857121E+03 E0= -.12855680E+03  d E =0.458361E-02  mag=    19.0459
       N       E                     dE             d eps       ncg     rms          rms(c)
DAV:   1    -0.128571211858E+03   -0.33331E-04   -0.89415E-07   788   0.500E-03    0.432E-03
RMM:   2    -0.128571394616E+03   -0.18276E-03   -0.20377E-06   289   0.490E-03    0.330E-01
RMM:   3    -0.128571061004E+03    0.33361E-03   -0.80637E-05   667   0.229E-02    0.215E-02
RMM:   4    -0.128571207314E+03   -0.14631E-03   -0.46258E-05   596   0.163E-02    0.354E-02
RMM:   5    -0.128571210744E+03   -0.34296E-05   -0.82546E-06   494   0.948E-03
  81 F= -.12857121E+03 E0= -.12855681E+03  d E =0.458232E-02  mag=    19.0459
       N       E                     dE             d eps       ncg     rms          rms(c)
DAV:   1    -0.128571211866E+03   -0.45520E-05   -0.16837E-06   860   0.541E-03    0.102E-02
RMM:   2    -0.128572233755E+03   -0.10219E-02   -0.18132E-05   565   0.981E-03    0.719E-01
RMM:   3    -0.128570277961E+03    0.19558E-02   -0.17892E-04   777   0.357E-02    0.482E-02
RMM:   4    -0.128571171935E+03   -0.89397E-03   -0.14643E-04   720   0.264E-02    0.208E-02
RMM:   5    -0.128571210584E+03   -0.38648E-04   -0.70415E-06   563   0.112E-02
  82 F= -.12857121E+03 E0= -.12855682E+03  d E =0.458248E-02  mag=    19.0459
       N       E                     dE             d eps       ncg     rms          rms(c)
DAV:   1    -0.128571211325E+03   -0.39390E-04   -0.13906E-06   836   0.566E-03    0.138E-03
RMM:   2    -0.128571221211E+03   -0.98858E-05   -0.14813E-07   136   0.296E-03
  83 F= -.12857122E+03 E0= -.12855700E+03  d E =0.457185E-02  mag=    19.0459
       N       E                     dE             d eps       ncg     rms          rms(c)
DAV:   1    -0.128571189921E+03    0.21404E-04   -0.12936E-05   824   0.793E-03    0.181E-02
RMM:   2    -0.128574802954E+03   -0.36130E-02   -0.62410E-05   739   0.170E-02    0.154E+00
RMM:   3    -0.128568799652E+03    0.60033E-02   -0.56196E-04   931   0.715E-02    0.945E-02
RMM:   4    -0.128571084045E+03   -0.22844E-02   -0.25627E-04   854   0.490E-02    0.169E-01
RMM:   5    -0.128571208589E+03   -0.12454E-03   -0.12160E-04   758   0.299E-02    0.122E-01
RMM:   6    -0.128571169491E+03    0.39098E-04   -0.38836E-06   485   0.959E-03
  84 F= -.12857117E+03 E0= -.12855683E+03  d E =0.462357E-02  mag=    19.0459
       N       E                     dE             d eps       ncg     rms          rms(c)
DAV:   1    -0.128571196119E+03    0.12470E-04   -0.77903E-06   844   0.874E-03    0.105E-02
RMM:   2    -0.128572020842E+03   -0.82472E-03   -0.16090E-05   552   0.103E-02    0.645E-01
RMM:   3    -0.128570428860E+03    0.15920E-02   -0.14709E-04   769   0.321E-02    0.707E-02
RMM:   4    -0.128571192209E+03   -0.76335E-03   -0.12886E-04   720   0.261E-02    0.398E-02
RMM:   5    -0.128571204695E+03   -0.12485E-04   -0.31308E-06   451   0.784E-03
  85 F= -.12857120E+03 E0= -.12855681E+03  d E =0.458837E-02  mag=    19.0459
       N       E                     dE             d eps       ncg     rms          rms(c)
DAV:   1    -0.128571210962E+03   -0.18753E-04   -0.20545E-06   884   0.641E-03    0.376E-03
RMM:   2    -0.128571331575E+03   -0.12061E-03   -0.98281E-07   243   0.468E-03    0.256E-01
RMM:   3    -0.128571063651E+03    0.26792E-03   -0.14231E-05   534   0.131E-02    0.234E-02
RMM:   4    -0.128571191612E+03   -0.12796E-03   -0.84890E-06   464   0.918E-03    0.102E-02
RMM:   5    -0.128571210826E+03   -0.19214E-04   -0.26438E-06   387   0.621E-03
  86 F= -.12857121E+03 E0= -.12855679E+03  d E =0.458224E-02  mag=    19.0459
       N       E                     dE             d eps       ncg     rms          rms(c)
DAV:   1    -0.128571212725E+03   -0.21114E-04   -0.85087E-07   776   0.384E-03    0.802E-03
RMM:   2    -0.128571868782E+03   -0.65606E-03   -0.10527E-05   469   0.768E-03    0.584E-01
RMM:   3    -0.128570573831E+03    0.12950E-02   -0.11169E-04   738   0.295E-02    0.374E-02
RMM:   4    -0.128571176966E+03   -0.60313E-03   -0.91646E-05   681   0.220E-02    0.823E-03
RMM:   5    -0.128571210239E+03   -0.33273E-04   -0.46707E-06   500   0.924E-03
  87 F= -.12857121E+03 E0= -.12855680E+03  d E =0.458282E-02  mag=    19.0459
       N       E                     dE             d eps       ncg     rms          rms(c)
DAV:   1    -0.128571211949E+03   -0.34983E-04   -0.97149E-07   804   0.514E-03    0.945E-04
RMM:   2    -0.128571216223E+03   -0.42745E-05   -0.83955E-08   113   0.253E-03
  88 F= -.12857122E+03 E0= -.12855692E+03  d E =0.457684E-02  mag=    19.0459
       N       E                     dE             d eps       ncg     rms          rms(c)
DAV:   1    -0.128571203129E+03    0.88197E-05   -0.63464E-06   812   0.556E-03    0.895E-03
RMM:   2    -0.128572003121E+03   -0.79999E-03   -0.13958E-05   503   0.872E-03    0.701E-01
RMM:   3    -0.128570693128E+03    0.13100E-02   -0.26928E-04   800   0.420E-02    0.436E-02
RMM:   4    -0.128571178312E+03   -0.48518E-03   -0.14083E-04   721   0.291E-02    0.793E-02
RMM:   5    -0.128571210018E+03   -0.31706E-04   -0.36262E-05   662   0.182E-02
  89 F= -.12857121E+03 E0= -.12855688E+03  d E =0.458304E-02  mag=    19.0459
       N       E                     dE             d eps       ncg     rms          rms(c)
DAV:   1    -0.128571206862E+03   -0.28550E-04   -0.97485E-06   868   0.104E-02    0.144E-02
RMM:   2    -0.128573083417E+03   -0.18766E-02   -0.36487E-05   692   0.139E-02    0.948E-01
RMM:   3    -0.128569765623E+03    0.33178E-02   -0.31661E-04   849   0.463E-02    0.662E-02
RMM:   4    -0.128571173034E+03   -0.14074E-02   -0.25359E-04   777   0.350E-02    0.546E-02
RMM:   5    -0.128571208878E+03   -0.35844E-04   -0.14389E-05   629   0.157E-02
  90 F= -.12857121E+03 E0= -.12855683E+03  d E =0.458418E-02  mag=    19.0459
       N       E                     dE             d eps       ncg     rms          rms(c)
DAV:   1    -0.128571211015E+03   -0.37980E-04   -0.21895E-06   852   0.728E-03    0.793E-03
RMM:   2    -0.128571838088E+03   -0.62707E-03   -0.10623E-05   498   0.830E-03    0.621E-01
RMM:   3    -0.128570815762E+03    0.10223E-02   -0.23021E-04   781   0.387E-02    0.390E-02
RMM:   4    -0.128571183898E+03   -0.36814E-03   -0.12183E-04   701   0.267E-02    0.708E-02
RMM:   5    -0.128571210110E+03   -0.26212E-04   -0.29770E-05   634   0.168E-02
  91 F= -.12857121E+03 E0= -.12855687E+03  d E =0.458295E-02  mag=    19.0459
       N       E                     dE             d eps       ncg     rms          rms(c)
DAV:   1    -0.128571207589E+03   -0.23691E-04   -0.84338E-06   872   0.995E-03    0.130E-02
RMM:   2    -0.128572755252E+03   -0.15477E-02   -0.29653E-05   671   0.127E-02    0.869E-01
RMM:   3    -0.128569961218E+03    0.27940E-02   -0.26439E-04   833   0.426E-02    0.589E-02
RMM:   4    -0.128571173797E+03   -0.12126E-02   -0.21370E-04   763   0.320E-02    0.524E-02
RMM:   5    -0.128571209247E+03   -0.35449E-04   -0.13115E-05   625   0.149E-02
  92 F= -.12857121E+03 E0= -.12855682E+03  d E =0.458382E-02  mag=    19.0459
       N       E                     dE             d eps       ncg     rms          rms(c)
DAV:   1    -0.128571211487E+03   -0.37690E-04   -0.19510E-06   836   0.690E-03    0.643E-03
RMM:   2    -0.128571609100E+03   -0.39761E-03   -0.65029E-06   440   0.694E-03    0.491E-01
RMM:   3    -0.128570940610E+03    0.66849E-03   -0.16104E-04   746   0.319E-02    0.315E-02
RMM:   4    -0.128571197374E+03   -0.25676E-03   -0.87577E-05   663   0.221E-02    0.522E-02
RMM:   5    -0.128571210439E+03   -0.13065E-04   -0.18127E-05   589   0.135E-02
  93 F= -.12857121E+03 E0= -.12855684E+03  d E =0.458262E-02  mag=    19.0459
       N       E                     dE             d eps       ncg     rms          rms(c)
DAV:   1    -0.128571210501E+03   -0.13127E-04   -0.40057E-06   868   0.752E-03    0.118E-02
RMM:   2    -0.128572530882E+03   -0.13204E-02   -0.24651E-05   629   0.114E-02    0.809E-01
RMM:   3    -0.128570103666E+03    0.24272E-02   -0.22665E-04   811   0.398E-02    0.542E-02
RMM:   4    -0.128571172349E+03   -0.10687E-02   -0.18418E-04   745   0.298E-02    0.408E-02
RMM:   5    -0.128571209724E+03   -0.37375E-04   -0.10316E-05   602   0.134E-02
  94 F= -.12857121E+03 E0= -.12855682E+03  d E =0.458334E-02  mag=    19.0459
       N       E                     dE             d eps       ncg     rms          rms(c)
DAV:   1    -0.128571211291E+03   -0.38942E-04   -0.15397E-06   832   0.635E-03    0.581E-03
RMM:   2    -0.128571538281E+03   -0.32699E-03   -0.50186E-06   396   0.637E-03    0.444E-01
RMM:   3    -0.128570985648E+03    0.55263E-03   -0.13608E-04   723   0.293E-02    0.284E-02
RMM:   4    -0.128571202087E+03   -0.21644E-03   -0.75886E-05   646   0.205E-02    0.496E-02
RMM:   5    -0.128571210275E+03   -0.81889E-05   -0.14947E-05   572   0.123E-02
  95 F= -.12857121E+03 E0= -.12855683E+03  d E =0.458279E-02  mag=    19.0459
       N       E                     dE             d eps       ncg     rms          rms(c)
DAV:   1    -0.128571210751E+03   -0.86649E-05   -0.33795E-06   860   0.685E-03    0.114E-02
RMM:   2    -0.128572444477E+03   -0.12337E-02   -0.22747E-05   615   0.110E-02    0.784E-01
RMM:   3    -0.128570153763E+03    0.22907E-02   -0.21197E-04   802   0.386E-02    0.524E-02
RMM:   4    -0.128571171779E+03   -0.10180E-02   -0.17290E-04   739   0.289E-02    0.368E-02
RMM:   5    -0.128571209851E+03   -0.38072E-04   -0.93477E-06   600   0.128E-02
  96 F= -.12857121E+03 E0= -.12855682E+03  d E =0.458321E-02  mag=    19.0459
       N       E                     dE             d eps       ncg     rms          rms(c)
DAV:   1    -0.128571211179E+03   -0.39400E-04   -0.14271E-06   832   0.609E-03    0.556E-03
RMM:   2    -0.128571510575E+03   -0.29940E-03   -0.44794E-06   385   0.613E-03    0.424E-01
RMM:   3    -0.128571007971E+03    0.50260E-03   -0.12624E-04   715   0.283E-02    0.272E-02
RMM:   4    -0.128571203288E+03   -0.19532E-03   -0.70909E-05   641   0.199E-02    0.479E-02
RMM:   5    -0.128571210279E+03   -0.69916E-05   -0.13581E-05   561   0.118E-02
  97 F= -.12857121E+03 E0= -.12855683E+03  d E =0.458278E-02  mag=    19.0459
       N       E                     dE             d eps       ncg     rms          rms(c)
DAV:   1    -0.128571210930E+03   -0.76426E-05   -0.31332E-06   852   0.664E-03    0.114E-02
RMM:   2    -0.128572451036E+03   -0.12401E-02   -0.22855E-05   615   0.109E-02    0.786E-01
RMM:   3    -0.128570149884E+03    0.23012E-02   -0.21304E-04   800   0.387E-02    0.525E-02
RMM:   4    -0.128571171451E+03   -0.10216E-02   -0.17370E-04   741   0.289E-02    0.356E-02
RMM:   5    -0.128571209844E+03   -0.38392E-04   -0.91833E-06   590   0.127E-02
  98 F= -.12857121E+03 E0= -.12855683E+03  d E =0.458322E-02  mag=    19.0459
       N       E                     dE             d eps       ncg     rms          rms(c)
DAV:   1    -0.128571211105E+03   -0.39654E-04   -0.14238E-06   832   0.605E-03    0.570E-03
RMM:   2    -0.128571528027E+03   -0.31692E-03   -0.48067E-06   391   0.623E-03    0.437E-01
RMM:   3    -0.128570993857E+03    0.53417E-03   -0.13254E-04   720   0.289E-02    0.278E-02
RMM:   4    -0.128571202550E+03   -0.20869E-03   -0.74350E-05   643   0.203E-02    0.501E-02
RMM:   5    -0.128571210176E+03   -0.76264E-05   -0.14485E-05   568   0.121E-02
  99 F= -.12857121E+03 E0= -.12855683E+03  d E =0.458289E-02  mag=    19.0460
