<?xml version="1.0" encoding="ISO-8859-1"?>
<modeling>
 <generator>
  <i name="program" type="string">vasp </i>
  <i name="version" type="string">5.4.1  </i>
  <i name="subversion" type="string">24Jun15 (build Jan 06 2016 13:10:00) complex                          parallel </i>
  <i name="platform" type="string">IFC91_ompi </i>
  <i name="date" type="string">2016 03 22 </i>
  <i name="time" type="string">15:21:22 </i>
 </generator>
 <incar>
  <i type="string" name="PREC">normal</i>
  <i type="string" name="ALGO"> Fast</i>
  <i type="int" name="ISPIN">     2</i>
  <i type="int" name="ICHARG">     1</i>
  <i type="int" name="NELM">   100</i>
  <i type="int" name="IBRION">     2</i>
  <i name="EDIFF">      0.00010000</i>
  <i name="EDIFFG">     -0.01000000</i>
  <i type="int" name="NSW">    99</i>
  <i type="int" name="ISIF">     0</i>
  <i name="ENCUT">    300.00000000</i>
  <i type="string" name="LREAL"> Auto</i>
  <i type="int" name="ISMEAR">     0</i>
  <i name="SIGMA">      0.05000000</i>
  <i type="int" name="LMAXMIX">     4</i>
  <i type="logical" name="LWAVE"> F  </i>
  <i type="logical" name="LVTOT"> T  </i>
  <v type="int" name="KPOINT_BSE">    -1     0     0     0</v>
  <i type="int" name="NELM">   100</i>
  <i type="logical" name="LDAU"> T  </i>
  <v type="int" name="LDAUTYPE">     2</v>
  <v type="int" name="LDAUL">     0     2     0</v>
  <v name="LDAUU">      0.00000000      5.30000000      0.00000000</v>
  <v name="LDAUJ">      0.00000000      0.00000000      0.00000000</v>
  <i type="int" name="LDAUPRINT">     1</i>
  <i type="logical" name="LDIPOL"> T  </i>
  <i type="int" name="IDIPOL">     3</i>
 </incar>
 <kpoints>
  <generation param="Monkhorst-Pack">
   <v type="int" name="divisions">       4        4        1 </v>
   <v name="usershift">      0.00000000       0.00000000       0.00000000 </v>
   <v name="genvec1">      0.25000000       0.00000000       0.00000000 </v>
   <v name="genvec2">      0.00000000       0.25000000       0.00000000 </v>
   <v name="genvec3">      0.00000000       0.00000000       1.00000000 </v>
   <v name="shift">      0.50000000       0.50000000       0.00000000 </v>
  </generation>
  <varray name="kpointlist" >
   <v>       0.12500000       0.12500000       0.00000000 </v>
   <v>       0.37500000       0.12500000       0.00000000 </v>
   <v>       0.37500000       0.37500000       0.00000000 </v>
  </varray>
  <varray name="weights" >
   <v>       0.25000000 </v>
   <v>       0.50000000 </v>
   <v>       0.25000000 </v>
  </varray>
 </kpoints>
 <parameters>
  <separator name="general" >
   <i type="string" name="SYSTEM">unknown system</i>
   <i type="logical" name="LCOMPAT"> F  </i>
  </separator>
  <separator name="electronic" >
   <i type="string" name="PREC">normal</i>
   <i name="ENMAX">    300.00000000</i>
   <i name="ENAUG">    578.34200000</i>
   <i name="EDIFF">      0.00010000</i>
   <i type="int" name="IALGO">    68</i>
   <i type="int" name="IWAVPR">    11</i>
   <i type="int" name="NBANDS">   116</i>
   <i name="NELECT">    174.00000000</i>
   <i type="int" name="TURBO">     0</i>
   <i type="int" name="IRESTART">     0</i>
   <i type="int" name="NREBOOT">     0</i>
   <i type="int" name="NMIN">     0</i>
   <i name="EREF">      0.00000000</i>
   <separator name="electronic smearing" >
    <i type="int" name="ISMEAR">     0</i>
    <i name="SIGMA">      0.05000000</i>
    <i name="KSPACING">      0.50000000</i>
    <i type="logical" name="KGAMMA"> T  </i>
   </separator>
   <separator name="electronic projectors" >
    <i type="logical" name="LREAL"> T  </i>
    <v name="ROPT">     -0.00050000     -0.00050000     -0.00050000</v>
    <i type="int" name="LMAXPAW">  -100</i>
    <i type="int" name="LMAXMIX">     4</i>
    <i type="logical" name="NLSPLINE"> F  </i>
   </separator>
   <separator name="electronic startup" >
    <i type="int" name="ISTART">     0</i>
    <i type="int" name="ICHARG">     1</i>
    <i type="int" name="INIWAV">     1</i>
   </separator>
   <separator name="electronic spin" >
    <i type="int" name="ISPIN">     2</i>
    <i type="logical" name="LNONCOLLINEAR"> F  </i>
    <v name="MAGMOM">      1.00000000      1.00000000      1.00000000      1.00000000      1.00000000      1.00000000      1.00000000      1.00000000      1.00000000      1.00000000      1.00000000      1.00000000      1.00000000      1.00000000      1.00000000      1.00000000      1.00000000      1.00000000      1.00000000      1.00000000
      1.00000000</v>
    <i name="NUPDOWN">     -1.00000000</i>
    <i type="logical" name="LSORBIT"> F  </i>
    <v name="SAXIS">      0.00000000      0.00000000      1.00000000</v>
    <i type="logical" name="LSPIRAL"> F  </i>
    <v name="QSPIRAL">      0.00000000      0.00000000      0.00000000</v>
    <i type="logical" name="LZEROZ"> F  </i>
   </separator>
   <separator name="electronic exchange-correlation" >
    <i type="logical" name="LASPH"> F  </i>
    <i type="logical" name="LMETAGGA"> F  </i>
   </separator>
   <separator name="electronic convergence" >
    <i type="int" name="NELM">   100</i>
    <i type="int" name="NELMDL">    -5</i>
    <i type="int" name="NELMIN">     2</i>
    <i name="ENINI">    300.00000000</i>
    <separator name="electronic convergence detail" >
     <i type="logical" name="LDIAG"> T  </i>
     <i type="logical" name="LSUBROT"> F  </i>
     <i name="WEIMIN">      0.00100000</i>
     <i name="EBREAK">      0.00000022</i>
     <i name="DEPER">      0.30000000</i>
     <i type="int" name="NRMM">     4</i>
     <i name="TIME">      0.40000000</i>
    </separator>
   </separator>
   <separator name="electronic mixer" >
    <i name="AMIX">      0.40000000</i>
    <i name="BMIX">      1.00000000</i>
    <i name="AMIN">      0.10000000</i>
    <i name="AMIX_MAG">      1.60000000</i>
    <i name="BMIX_MAG">      1.00000000</i>
    <separator name="electronic mixer details" >
     <i type="int" name="IMIX">     4</i>
     <i type="logical" name="MIXFIRST"> F  </i>
     <i type="int" name="MAXMIX">   -45</i>
     <i name="WC">    100.00000000</i>
     <i type="int" name="INIMIX">     1</i>
     <i type="int" name="MIXPRE">     1</i>
     <i type="int" name="MREMOVE">     5</i>
    </separator>
   </separator>
   <separator name="electronic dipolcorrection" >
    <i type="logical" name="LDIPOL"> T  </i>
    <i type="logical" name="LMONO"> F  </i>
    <i type="int" name="IDIPOL">     3</i>
    <i name="EPSILON">      1.00000000</i>
    <v name="DIPOL">   -100.00000000   -100.00000000   -100.00000000</v>
    <i name="EFIELD">      0.00000000</i>
   </separator>
  </separator>
  <separator name="grids" >
   <i type="int" name="NGX">    16</i>
   <i type="int" name="NGY">    16</i>
   <i type="int" name="NGZ">   140</i>
   <i type="int" name="NGXF">    32</i>
   <i type="int" name="NGYF">    32</i>
   <i type="int" name="NGZF">   280</i>
   <i type="logical" name="ADDGRID"> F  </i>
  </separator>
  <separator name="ionic" >
   <i type="int" name="NSW">    99</i>
   <i type="int" name="IBRION">     2</i>
   <i type="int" name="ISIF">     0</i>
   <i name="PSTRESS">      0.00000000</i>
   <i name="EDIFFG">     -0.01000000</i>
   <i type="int" name="NFREE">     1</i>
   <i name="POTIM">      0.50000000</i>
   <i name="SMASS">     -3.00000000</i>
   <i name="SCALEE">      1.00000000</i>
  </separator>
  <separator name="ionic md" >
   <i name="TEBEG">      0.00010000</i>
   <i name="TEEND">      0.00010000</i>
   <i type="int" name="NBLOCK">     1</i>
   <i type="int" name="KBLOCK">    99</i>
   <i type="int" name="NPACO">   256</i>
   <i name="APACO">     16.00000000</i>
  </separator>
  <separator name="symmetry" >
   <i type="int" name="ISYM">     2</i>
   <i name="SYMPREC">      0.00001000</i>
  </separator>
  <separator name="dos" >
   <i type="logical" name="LORBIT"> F  </i>
   <v name="RWIGS">     -1.00000000     -1.00000000     -1.00000000</v>
   <i type="int" name="NEDOS">   301</i>
   <i name="EMIN">     10.00000000</i>
   <i name="EMAX">    -10.00000000</i>
   <i name="EFERMI">      0.00000000</i>
  </separator>
  <separator name="writing" >
   <i type="int" name="NWRITE">     2</i>
   <i type="logical" name="LWAVE"> F  </i>
   <i type="logical" name="LCHARG"> T  </i>
   <i type="logical" name="LPARD"> F  </i>
   <i type="logical" name="LVTOT"> T  </i>
   <i type="logical" name="LVHAR"> F  </i>
   <i type="logical" name="LELF"> F  </i>
   <i type="logical" name="LOPTICS"> F  </i>
   <v name="STM">      0.00000000      0.00000000      0.00000000      0.00000000      0.00000000      0.00000000      0.00000000</v>
  </separator>
  <separator name="performance" >
   <i type="int" name="NPAR">     2</i>
   <i type="int" name="NSIM">     4</i>
   <i type="int" name="NBLK">    -1</i>
   <i type="logical" name="LPLANE"> T  </i>
   <i type="logical" name="LSCALAPACK"> T  </i>
   <i type="logical" name="LSCAAWARE"> F  </i>
   <i type="logical" name="LSCALU"> F  </i>
   <i type="logical" name="LASYNC"> F  </i>
   <i type="logical" name="LORBITALREAL"> F  </i>
  </separator>
  <separator name="miscellaneous" >
   <i type="int" name="IDIOT">     3</i>
   <i type="logical" name="LMUSIC"> F  </i>
   <v name="POMASS">     87.62000000     55.84700000     16.00000000</v>
   <v name="DARWINR">      0.00000000      0.00000000      0.00000000</v>
   <v name="DARWINV">      1.00000000      1.00000000      1.00000000</v>
   <i type="logical" name="LCORR"> T  </i>
  </separator>
  <i type="logical" name="GGA_COMPAT"> T  </i>
  <i type="logical" name="LBERRY"> F  </i>
  <i type="int" name="ICORELEVEL">     0</i>
  <i type="logical" name="LDAU"> T  </i>
  <v type="int" name="LDAUTYPE">     2</v>
  <v type="int" name="LDAUL">     0</v>
  <v name="LDAUU">      0.00000000</v>
  <v name="LDAUJ">      0.00000000</v>
  <i type="int" name="LDAUPRINT">     1</i>
  <i type="int" name="I_CONSTRAINED_M">     0</i>
  <separator name="electronic exchange-correlation" >
   <i type="string" name="GGA">--</i>
   <i type="int" name="VOSKOWN">     0</i>
   <i type="logical" name="LHFCALC"> F  </i>
   <i type="string" name="PRECFOCK"></i>
   <i type="logical" name="LSYMGRAD"> F  </i>
   <i type="logical" name="LHFONE"> F  </i>
   <i type="logical" name="LRHFCALC"> F  </i>
   <i type="logical" name="LTHOMAS"> F  </i>
   <i type="logical" name="LMODELHF"> F  </i>
   <i name="ENCUT4O">     -1.00000000</i>
   <i type="int" name="EXXOEP">     0</i>
   <i type="int" name="FOURORBIT">     0</i>
   <i name="AEXX">      0.00000000</i>
   <i name="HFALPHA">      0.00000000</i>
   <i name="MCALPHA">      0.00000000</i>
   <i name="ALDAX">      1.00000000</i>
   <i name="AGGAX">      1.00000000</i>
   <i name="ALDAC">      1.00000000</i>
   <i name="AGGAC">      1.00000000</i>
   <i type="int" name="NKREDX">     1</i>
   <i type="int" name="NKREDY">     1</i>
   <i type="int" name="NKREDZ">     1</i>
   <i type="logical" name="SHIFTRED"> F  </i>
   <i type="logical" name="ODDONLY"> F  </i>
   <i type="logical" name="EVENONLY"> F  </i>
   <i type="int" name="LMAXFOCK">     0</i>
   <i type="int" name="NMAXFOCKAE">     0</i>
   <i type="logical" name="LFOCKAEDFT"> F  </i>
   <i name="HFSCREEN">      0.00000000</i>
   <i name="HFSCREENC">      0.00000000</i>
   <i type="int" name="NBANDSGWLOW">     0</i>
  </separator>
  <separator name="vdW DFT" >
   <i type="logical" name="LUSE_VDW"> F  </i>
   <i name="Zab_VDW">     -0.84910000</i>
   <i name="PARAM1">      0.12340000</i>
   <i name="PARAM2">      1.00000000</i>
   <i name="PARAM3">      0.00000000</i>
  </separator>
  <separator name="model GW" >
   <i type="int" name="MODEL_GW">     0</i>
   <i name="MODEL_EPS0">     13.18530081</i>
   <i name="MODEL_ALPHA">      1.00000000</i>
  </separator>
  <separator name="linear response parameters" >
   <i type="logical" name="LEPSILON"> F  </i>
   <i type="logical" name="LRPA"> F  </i>
   <i type="logical" name="LNABLA"> F  </i>
   <i type="logical" name="LVEL"> F  </i>
   <i type="int" name="KINTER">     0</i>
   <i name="CSHIFT">      0.10000000</i>
   <i name="OMEGAMAX">     -1.00000000</i>
   <i name="DEG_THRESHOLD">      0.00200000</i>
  </separator>
  <separator name="orbital magnetization" >
   <i type="logical" name="NUCIND"> F  </i>
   <v name="MAGPOS">      0.00000000      0.00000000      0.00000000</v>
   <i type="logical" name="LNICSALL"> T  </i>
   <i type="logical" name="ORBITALMAG"> F  </i>
   <i type="logical" name="LMAGBLOCH"> F  </i>
   <i type="logical" name="LCHIMAG"> F  </i>
   <i type="logical" name="LGAUGE"> T  </i>
   <i type="int" name="MAGATOM">     0</i>
   <v name="MAGDIPOL">      0.00000000      0.00000000      0.00000000</v>
   <v name="AVECCONST">      0.00000000      0.00000000      0.00000000</v>
  </separator>
  <separator name="response functions" >
   <i type="logical" name="LADDER"> F  </i>
   <i type="logical" name="LFXC"> F  </i>
   <i type="logical" name="LHARTREE"> T  </i>
   <i type="int" name="IBSE">     0</i>
   <v type="int" name="KPOINT">    -1     0     0     0</v>
   <i type="logical" name="LTCTE"> F  </i>
   <i type="logical" name="LTETE"> F  </i>
   <i type="logical" name="LTRIPLET"> F  </i>
   <i type="logical" name="LFXCEPS"> F  </i>
   <i type="logical" name="LFXHEG"> F  </i>
   <i type="int" name="NATURALO">     0</i>
   <i type="logical" name="L2ORDER"> F  </i>
   <i type="logical" name="LUSEW"> F  </i>
   <i name="ENCUTGW">     -2.00000000</i>
   <i name="ENCUTGWSOFT">     -2.00000000</i>
   <i name="ENCUTLF">     -1.00000000</i>
   <i type="int" name="LMAXMP2">    -1</i>
   <i name="SCISSOR">      0.00000000</i>
   <i type="int" name="NOMEGA">     0</i>
   <i type="int" name="NOMEGAR">     0</i>
   <i type="int" name="NBANDSGW">    -1</i>
   <i type="int" name="NBANDSO">    -1</i>
   <i type="int" name="NBANDSV">    -1</i>
   <i type="int" name="NELM">   100</i>
   <i type="int" name="NELMHF">     1</i>
   <i type="int" name="DIM">     3</i>
   <i type="int" name="ANTIRES">     0</i>
   <i name="OMEGAMAX">    -30.00000000</i>
   <i name="OMEGAMIN">    -30.00000000</i>
   <i name="OMEGATL">   -200.00000000</i>
   <i type="int" name="OMEGAGRID">     0</i>
   <i name="CSHIFT">     -0.10000000</i>
   <i type="logical" name="SELFENERGY"> F  </i>
   <i type="logical" name="LSPECTRAL"> F  </i>
   <i type="logical" name="LSPECTRALGW"> F  </i>
   <i type="logical" name="LSINGLES"> F  </i>
   <i type="logical" name="LFERMIGW"> F  </i>
   <i type="logical" name="ODDONLYGW"> F  </i>
   <i type="logical" name="EVENONLYGW"> F  </i>
   <i type="int" name="NKREDLFX">     1</i>
   <i type="int" name="NKREDLFY">     1</i>
   <i type="int" name="NKREDLFZ">     1</i>
   <i type="int" name="MAXMEM">  1800</i>
   <i type="int" name="TELESCOPE">     0</i>
   <i type="int" name="TAUPAR">     1</i>
   <i type="int" name="OMEGAPAR">    -1</i>
   <i name="LAMBDA">      1.00000000</i>
  </separator>
  <separator name="External order field" >
   <i name="OFIELD_KAPPA">      0.00000000</i>
   <v name="OFIELD_K">      0.00000000      0.00000000      0.00000000</v>
   <i name="OFIELD_Q6_NEAR">      0.00000000</i>
   <i name="OFIELD_Q6_FAR">      0.00000000</i>
   <i name="OFIELD_A">      0.00000000</i>
  </separator>
  <separator name="solvation model" >
   <i type="logical" name="LSOL"> F  </i>
  </separator>
 </parameters>
 <atominfo>
  <atoms>      21 </atoms>
  <types>       3 </types>
  <array name="atoms" >
   <dimension dim="1">ion</dimension>
   <field type="string">element</field>
   <field type="int">atomtype</field>
   <set>
    <rc><c>Sr</c><c>   1</c></rc>
    <rc><c>Sr</c><c>   1</c></rc>
    <rc><c>Sr</c><c>   1</c></rc>
    <rc><c>Sr</c><c>   1</c></rc>
    <rc><c>Fe</c><c>   2</c></rc>
    <rc><c>Fe</c><c>   2</c></rc>
    <rc><c>Fe</c><c>   2</c></rc>
    <rc><c>Fe</c><c>   2</c></rc>
    <rc><c>O </c><c>   3</c></rc>
    <rc><c>O </c><c>   3</c></rc>
    <rc><c>O </c><c>   3</c></rc>
    <rc><c>O </c><c>   3</c></rc>
    <rc><c>O </c><c>   3</c></rc>
    <rc><c>O </c><c>   3</c></rc>
    <rc><c>O </c><c>   3</c></rc>
    <rc><c>O </c><c>   3</c></rc>
    <rc><c>O </c><c>   3</c></rc>
    <rc><c>O </c><c>   3</c></rc>
    <rc><c>O </c><c>   3</c></rc>
    <rc><c>O </c><c>   3</c></rc>
    <rc><c>O </c><c>   3</c></rc>
   </set>
  </array>
  <array name="atomtypes" >
   <dimension dim="1">type</dimension>
   <field type="int">atomspertype</field>
   <field type="string">element</field>
   <field>mass</field>
   <field>valence</field>
   <field type="string">pseudopotential</field>
   <set>
    <rc><c>   4</c><c>Sr</c><c>     87.62000000</c><c>     10.00000000</c><c>  PAW Sr                                </c></rc>
    <rc><c>   4</c><c>Fe</c><c>     55.84700000</c><c>     14.00000000</c><c>  PAW Fe                                </c></rc>
    <rc><c>  13</c><c>O </c><c>     16.00000000</c><c>      6.00000000</c><c>  PAW O_s                               </c></rc>
   </set>
  </array>
 </atominfo>
 <structure name="initialpos" >
  <crystal>
   <varray name="basis" >
    <v>       3.88680817       0.00000000       0.00000000 </v>
    <v>       0.00000000       3.88680817       0.00000000 </v>
    <v>       0.00000000       0.00000000      30.54723268 </v>
   </varray>
   <i name="volume">    461.48552838 </i>
   <varray name="rec_basis" >
    <v>       0.25728051       0.00000000       0.00000000 </v>
    <v>       0.00000000       0.25728051       0.00000000 </v>
    <v>       0.00000000       0.00000000       0.03273619 </v>
   </varray>
  </crystal>
  <varray name="positions" >
   <v>       0.50000000       0.50000000       0.06361964 </v>
   <v>       0.50000000       0.50000000       0.19085893 </v>
   <v>       0.50000000       0.50000000       0.31750742 </v>
   <v>       0.50000000       0.50000000       0.45123163 </v>
   <v>       0.00000000       0.00000000       0.00000000 </v>
   <v>       0.00000000       0.00000000       0.12723929 </v>
   <v>       0.00000000       0.00000000       0.25512050 </v>
   <v>       0.00000000       0.00000000       0.38469980 </v>
   <v>       0.50000000       0.00000000       0.00000000 </v>
   <v>       0.50000000       0.00000000       0.12723929 </v>
   <v>       0.50000000       0.00000000       0.25708074 </v>
   <v>       0.50000000       0.00000000       0.39672330 </v>
   <v>       0.00000000       0.50000000       0.00000000 </v>
   <v>       0.00000000       0.50000000       0.12723929 </v>
   <v>       0.00000000       0.50000000       0.25708074 </v>
   <v>       0.00000000       0.50000000       0.39672330 </v>
   <v>       0.00000000       0.00000000       0.06361964 </v>
   <v>       0.00000000       0.00000000       0.19085893 </v>
   <v>       0.00000000       0.00000000       0.32284234 </v>
   <v>       0.00000000       0.00000000       0.46956470 </v>
   <v>       0.00000000       0.00000000       0.51621105 </v>
  </varray>
  <varray name="selective"  type="logical" >
   <v type="logical" >  F  F  F </v>
   <v type="logical" >  F  F  F </v>
   <v type="logical" >  T  T  T </v>
   <v type="logical" >  T  T  T </v>
   <v type="logical" >  F  F  F </v>
   <v type="logical" >  F  F  F </v>
   <v type="logical" >  T  T  T </v>
   <v type="logical" >  T  T  T </v>
   <v type="logical" >  F  F  F </v>
   <v type="logical" >  F  F  F </v>
   <v type="logical" >  T  T  T </v>
   <v type="logical" >  T  T  T </v>
   <v type="logical" >  F  F  F </v>
   <v type="logical" >  F  F  F </v>
   <v type="logical" >  T  T  T </v>
   <v type="logical" >  T  T  T </v>
   <v type="logical" >  F  F  F </v>
   <v type="logical" >  F  F  F </v>
   <v type="logical" >  T  T  T </v>
   <v type="logical" >  T  T  T </v>
   <v type="logical" >  T  T  T </v>
  </varray>
  <nose>
   <v>      -3.00000000       0.00000000       0.00010000       0.00010000 </v>
  </nose>
 </structure>
 <calculation>
  <scstep>
   <time name="dav">    5.22    5.22</time>
   <time name="total">    5.72    5.72</time>
   <dipole>
    <v name="dipole">      0.00000000       0.00000000      -0.00009078 </v>
    <i name="Tr[quadrupol]">   -487.99019748 </i>
    <i name="Echarged">      0.00000000 </i>
    <i name="Edipol_quadrupol">      0.00000000 </i>
    <i name="Eion">      0.00000000 </i>
   </dipole>
   <energy>
    <i name="alphaZ">    627.67004071 </i>
    <i name="ewald">  84140.52896736 </i>
    <i name="hartreedc">-101217.51972515 </i>
    <i name="XCdc">    785.83628813 </i>
    <i name="pawpsdc">  13269.85852683 </i>
    <i name="pawaedc"> -13577.37424458 </i>
    <i name="eentropy">     -0.01987772 </i>
    <i name="bandstr">  -1391.28778180 </i>
    <i name="atom">  18840.78653830 </i>
    <i name="e_fr_energy">   1478.47873208 </i>
    <i name="e_wo_entrp">   1478.49860980 </i>
    <i name="e_0_energy">   1478.48867094 </i>
   </energy>
  </scstep>
  <scstep>
   <time name="dav">    5.00    5.00</time>
   <time name="total">    5.00    5.00</time>
   <dipole>
    <v name="dipole">      0.00000000       0.00000000      -0.00009078 </v>
    <i name="Tr[quadrupol]">   -487.99019748 </i>
    <i name="Echarged">      0.00000000 </i>
    <i name="Edipol_quadrupol">      0.00000000 </i>
    <i name="Eion">      0.00000000 </i>
   </dipole>
   <energy>
    <i name="e_fr_energy">    -24.45362035 </i>
    <i name="e_wo_entrp">    -24.43577013 </i>
    <i name="e_0_energy">    -24.44469524 </i>
   </energy>
  </scstep>
  <scstep>
   <time name="dav">    5.54    5.54</time>
   <time name="total">    5.54    5.54</time>
   <dipole>
    <v name="dipole">      0.00000000       0.00000000      -0.00009078 </v>
    <i name="Tr[quadrupol]">   -487.99019748 </i>
    <i name="Echarged">      0.00000000 </i>
    <i name="Edipol_quadrupol">      0.00000000 </i>
    <i name="Eion">      0.00000000 </i>
   </dipole>
   <energy>
    <i name="e_fr_energy">   -146.61082753 </i>
    <i name="e_wo_entrp">   -146.59152833 </i>
    <i name="e_0_energy">   -146.60117793 </i>
   </energy>
  </scstep>
  <scstep>
   <time name="dav">    6.85    6.86</time>
   <time name="total">    6.85    6.86</time>
   <dipole>
    <v name="dipole">      0.00000000       0.00000000      -0.00009078 </v>
    <i name="Tr[quadrupol]">   -487.99019748 </i>
    <i name="Echarged">      0.00000000 </i>
    <i name="Edipol_quadrupol">      0.00000000 </i>
    <i name="Eion">      0.00000000 </i>
   </dipole>
   <energy>
    <i name="e_fr_energy">   -152.16399628 </i>
    <i name="e_wo_entrp">   -152.14315562 </i>
    <i name="e_0_energy">   -152.15357595 </i>
   </energy>
  </scstep>
  <scstep>
   <time name="dav">    7.38    7.38</time>
   <time name="total">    7.55    7.56</time>
   <dipole>
    <v name="dipole">      0.00000000       0.00000000      -0.00009078 </v>
    <i name="Tr[quadrupol]">   -487.99019748 </i>
    <i name="Echarged">      0.00000000 </i>
    <i name="Edipol_quadrupol">      0.00000000 </i>
    <i name="Eion">      0.00000000 </i>
   </dipole>
   <energy>
    <i name="e_fr_energy">   -152.59361713 </i>
    <i name="e_wo_entrp">   -152.57267485 </i>
    <i name="e_0_energy">   -152.58314599 </i>
   </energy>
  </scstep>
  <scstep>
   <time name="diag">    0.66    0.66</time>
   <time name="diis">    2.48    2.48</time>
   <time name="orth">    0.16    0.16</time>
   <time name="total">    3.96    3.96</time>
   <dipole>
    <v name="dipole">      0.00000000       0.00000000       1.32419316 </v>
    <i name="Tr[quadrupol]">   -488.83285748 </i>
    <i name="Echarged">      0.00000000 </i>
    <i name="Edipol_quadrupol">      0.00000000 </i>
    <i name="Eion">      0.00000000 </i>
   </dipole>
   <energy>
    <i name="e_fr_energy">   -299.99493090 </i>
    <i name="e_wo_entrp">   -299.98748898 </i>
    <i name="e_0_energy">   -299.99120994 </i>
   </energy>
  </scstep>
  <scstep>
   <time name="diag">    0.65    0.66</time>
   <time name="diis">    2.92    2.92</time>
   <time name="orth">    0.16    0.16</time>
   <time name="total">    4.40    4.40</time>
   <dipole>
    <v name="dipole">      0.00000000       0.00000000      -3.86077028 </v>
    <i name="Tr[quadrupol]">   -496.69485927 </i>
    <i name="Echarged">      0.00000000 </i>
    <i name="Edipol_quadrupol">      0.00000000 </i>
    <i name="Eion">      0.00000000 </i>
   </dipole>
   <energy>
    <i name="e_fr_energy">   -929.95095442 </i>
    <i name="e_wo_entrp">   -929.93498874 </i>
    <i name="e_0_energy">   -929.94297158 </i>
   </energy>
  </scstep>
  <scstep>
   <time name="diag">    0.65    0.65</time>
   <time name="diis">    2.29    2.30</time>
   <time name="orth">    0.16    0.16</time>
   <time name="total">    3.77    3.77</time>
   <dipole>
    <v name="dipole">      0.00000000       0.00000000      -0.54559124 </v>
    <i name="Tr[quadrupol]">   -502.73863767 </i>
    <i name="Echarged">      0.00000000 </i>
    <i name="Edipol_quadrupol">      0.00000000 </i>
    <i name="Eion">      0.00000000 </i>
   </dipole>
   <energy>
    <i name="e_fr_energy">   -224.43130901 </i>
    <i name="e_wo_entrp">   -224.42096520 </i>
    <i name="e_0_energy">   -224.42613710 </i>
   </energy>
  </scstep>
  <scstep>
   <time name="diag">    0.65    0.65</time>
   <time name="diis">    2.26    2.26</time>
   <time name="orth">    0.16    0.16</time>
   <time name="total">    3.73    3.74</time>
   <dipole>
    <v name="dipole">      0.00000000       0.00000000      -0.30569126 </v>
    <i name="Tr[quadrupol]">   -492.57497738 </i>
    <i name="Echarged">      0.00000000 </i>
    <i name="Edipol_quadrupol">      0.00000000 </i>
    <i name="Eion">      0.00000000 </i>
   </dipole>
   <energy>
    <i name="e_fr_energy">   -124.84149203 </i>
    <i name="e_wo_entrp">   -124.82882039 </i>
    <i name="e_0_energy">   -124.83515621 </i>
   </energy>
  </scstep>
  <scstep>
   <time name="diag">    0.65    0.65</time>
   <time name="diis">    2.25    2.26</time>
   <time name="orth">    0.16    0.16</time>
   <time name="total">    3.73    3.73</time>
   <dipole>
    <v name="dipole">      0.00000000       0.00000000      -0.27644332 </v>
    <i name="Tr[quadrupol]">   -493.43511902 </i>
    <i name="Echarged">      0.00000000 </i>
    <i name="Edipol_quadrupol">      0.00000000 </i>
    <i name="Eion">      0.00000000 </i>
   </dipole>
   <energy>
    <i name="e_fr_energy">   -126.19729424 </i>
    <i name="e_wo_entrp">   -126.18361600 </i>
    <i name="e_0_energy">   -126.19045512 </i>
   </energy>
  </scstep>
  <scstep>
   <time name="diag">    0.66    0.66</time>
   <time name="diis">    2.31    2.31</time>
   <time name="orth">    0.16    0.16</time>
   <time name="total">    3.79    3.79</time>
   <dipole>
    <v name="dipole">      0.00000000       0.00000000      -0.32081416 </v>
    <i name="Tr[quadrupol]">   -493.79563251 </i>
    <i name="Echarged">      0.00000000 </i>
    <i name="Edipol_quadrupol">      0.00000000 </i>
    <i name="Eion">      0.00000000 </i>
   </dipole>
   <energy>
    <i name="e_fr_energy">   -128.60922907 </i>
    <i name="e_wo_entrp">   -128.58980977 </i>
    <i name="e_0_energy">   -128.59951942 </i>
   </energy>
  </scstep>
  <scstep>
   <time name="diag">    0.66    0.66</time>
   <time name="diis">    2.35    2.35</time>
   <time name="orth">    0.16    0.16</time>
   <time name="total">    3.82    3.83</time>
   <dipole>
    <v name="dipole">      0.00000000       0.00000000      -0.34403972 </v>
    <i name="Tr[quadrupol]">   -493.71756304 </i>
    <i name="Echarged">      0.00000000 </i>
    <i name="Edipol_quadrupol">      0.00000000 </i>
    <i name="Eion">      0.00000000 </i>
   </dipole>
   <energy>
    <i name="e_fr_energy">   -130.26617603 </i>
    <i name="e_wo_entrp">   -130.26568403 </i>
    <i name="e_0_energy">   -130.26593003 </i>
   </energy>
  </scstep>
  <scstep>
   <time name="diag">    0.66    0.66</time>
   <time name="diis">    2.24    2.24</time>
   <time name="orth">    0.16    0.16</time>
   <time name="total">    3.72    3.72</time>
   <dipole>
    <v name="dipole">      0.00000000       0.00000000      -0.26388670 </v>
    <i name="Tr[quadrupol]">   -494.38953729 </i>
    <i name="Echarged">      0.00000000 </i>
    <i name="Edipol_quadrupol">      0.00000000 </i>
    <i name="Eion">      0.00000000 </i>
   </dipole>
   <energy>
    <i name="e_fr_energy">   -130.84019376 </i>
    <i name="e_wo_entrp">   -130.83265452 </i>
    <i name="e_0_energy">   -130.83642414 </i>
   </energy>
  </scstep>
  <scstep>
   <time name="diag">    0.66    0.66</time>
   <time name="diis">    2.30    2.31</time>
   <time name="orth">    0.16    0.16</time>
   <time name="total">    3.78    3.79</time>
   <dipole>
    <v name="dipole">      0.00000000       0.00000000      -0.25662699 </v>
    <i name="Tr[quadrupol]">   -493.73409620 </i>
    <i name="Echarged">      0.00000000 </i>
    <i name="Edipol_quadrupol">      0.00000000 </i>
    <i name="Eion">      0.00000000 </i>
   </dipole>
   <energy>
    <i name="e_fr_energy">   -129.74865343 </i>
    <i name="e_wo_entrp">   -129.73446831 </i>
    <i name="e_0_energy">   -129.74156087 </i>
   </energy>
  </scstep>
  <scstep>
   <time name="diag">    0.66    0.66</time>
   <time name="diis">    2.31    2.31</time>
   <time name="orth">    0.16    0.16</time>
   <time name="total">    3.79    3.79</time>
   <dipole>
    <v name="dipole">      0.00000000       0.00000000      -0.20813154 </v>
    <i name="Tr[quadrupol]">   -493.78307818 </i>
    <i name="Echarged">      0.00000000 </i>
    <i name="Edipol_quadrupol">      0.00000000 </i>
    <i name="Eion">      0.00000000 </i>
   </dipole>
   <energy>
    <i name="e_fr_energy">   -128.74164764 </i>
    <i name="e_wo_entrp">   -128.72109287 </i>
    <i name="e_0_energy">   -128.73137025 </i>
   </energy>
  </scstep>
  <scstep>
   <time name="diag">    0.66    0.66</time>
   <time name="diis">    2.31    2.31</time>
   <time name="orth">    0.16    0.16</time>
   <time name="total">    3.78    3.79</time>
   <dipole>
    <v name="dipole">      0.00000000       0.00000000      -0.00957781 </v>
    <i name="Tr[quadrupol]">   -493.66003121 </i>
    <i name="Echarged">      0.00000000 </i>
    <i name="Edipol_quadrupol">      0.00000000 </i>
    <i name="Eion">      0.00000000 </i>
   </dipole>
   <energy>
    <i name="e_fr_energy">   -127.99014648 </i>
    <i name="e_wo_entrp">   -127.97245506 </i>
    <i name="e_0_energy">   -127.98130077 </i>
   </energy>
  </scstep>
  <scstep>
   <time name="diag">    0.66    0.66</time>
   <time name="diis">    2.44    2.44</time>
   <time name="orth">    0.16    0.16</time>
   <time name="total">    3.91    3.92</time>
   <dipole>
    <v name="dipole">      0.00000000       0.00000000      -0.08676598 </v>
    <i name="Tr[quadrupol]">   -493.90657054 </i>
    <i name="Echarged">      0.00000000 </i>
    <i name="Edipol_quadrupol">      0.00000000 </i>
    <i name="Eion">      0.00000000 </i>
   </dipole>
   <energy>
    <i name="e_fr_energy">   -127.96846923 </i>
    <i name="e_wo_entrp">   -127.94968694 </i>
    <i name="e_0_energy">   -127.95907808 </i>
   </energy>
  </scstep>
  <scstep>
   <time name="diag">    0.66    0.66</time>
   <time name="diis">    2.26    2.26</time>
   <time name="orth">    0.16    0.16</time>
   <time name="total">    3.74    3.74</time>
   <dipole>
    <v name="dipole">      0.00000000       0.00000000       0.02697038 </v>
    <i name="Tr[quadrupol]">   -493.17732411 </i>
    <i name="Echarged">      0.00000000 </i>
    <i name="Edipol_quadrupol">      0.00000000 </i>
    <i name="Eion">      0.00000000 </i>
   </dipole>
   <energy>
    <i name="e_fr_energy">   -128.51591628 </i>
    <i name="e_wo_entrp">   -128.49255405 </i>
    <i name="e_0_energy">   -128.50423517 </i>
   </energy>
  </scstep>
  <scstep>
   <time name="diag">    0.66    0.66</time>
   <time name="diis">    2.33    2.34</time>
   <time name="orth">    0.16    0.16</time>
   <time name="total">    3.81    3.81</time>
   <dipole>
    <v name="dipole">      0.00000000       0.00000000       0.01529501 </v>
    <i name="Tr[quadrupol]">   -493.24560795 </i>
    <i name="Echarged">      0.00000000 </i>
    <i name="Edipol_quadrupol">      0.00000000 </i>
    <i name="Eion">      0.00000000 </i>
   </dipole>
   <energy>
    <i name="e_fr_energy">   -128.62701666 </i>
    <i name="e_wo_entrp">   -128.61918989 </i>
    <i name="e_0_energy">   -128.62310327 </i>
   </energy>
  </scstep>
  <scstep>
   <time name="diag">    0.66    0.66</time>
   <time name="diis">    2.57    2.57</time>
   <time name="orth">    0.16    0.16</time>
   <time name="total">    4.05    4.05</time>
   <dipole>
    <v name="dipole">      0.00000000       0.00000000       0.01498885 </v>
    <i name="Tr[quadrupol]">   -493.13478761 </i>
    <i name="Echarged">      0.00000000 </i>
    <i name="Edipol_quadrupol">      0.00000000 </i>
    <i name="Eion">      0.00000000 </i>
   </dipole>
   <energy>
    <i name="e_fr_energy">   -128.80115509 </i>
    <i name="e_wo_entrp">   -128.79451393 </i>
    <i name="e_0_energy">   -128.79783451 </i>
   </energy>
  </scstep>
  <scstep>
   <time name="diag">    0.66    0.66</time>
   <time name="diis">    2.23    2.23</time>
   <time name="orth">    0.16    0.16</time>
   <time name="total">    3.71    3.71</time>
   <dipole>
    <v name="dipole">      0.00000000       0.00000000       0.06436321 </v>
    <i name="Tr[quadrupol]">   -492.65631603 </i>
    <i name="Echarged">      0.00000000 </i>
    <i name="Edipol_quadrupol">      0.00000000 </i>
    <i name="Eion">      0.00000000 </i>
   </dipole>
   <energy>
    <i name="e_fr_energy">   -130.45056386 </i>
    <i name="e_wo_entrp">   -130.43942764 </i>
    <i name="e_0_energy">   -130.44499575 </i>
   </energy>
  </scstep>
  <scstep>
   <time name="diag">    0.65    0.66</time>
   <time name="diis">    2.24    2.24</time>
   <time name="orth">    0.16    0.16</time>
   <time name="total">    3.72    3.72</time>
   <dipole>
    <v name="dipole">      0.00000000       0.00000000       0.09190085 </v>
    <i name="Tr[quadrupol]">   -492.43025174 </i>
    <i name="Echarged">      0.00000000 </i>
    <i name="Edipol_quadrupol">      0.00000000 </i>
    <i name="Eion">      0.00000000 </i>
   </dipole>
   <energy>
    <i name="e_fr_energy">   -131.15806504 </i>
    <i name="e_wo_entrp">   -131.14547064 </i>
    <i name="e_0_energy">   -131.15176784 </i>
   </energy>
  </scstep>
  <scstep>
   <time name="diag">    0.66    0.66</time>
   <time name="diis">    2.29    2.29</time>
   <time name="orth">    0.16    0.16</time>
   <time name="total">    3.77    3.77</time>
   <dipole>
    <v name="dipole">      0.00000000       0.00000000       0.05082935 </v>
    <i name="Tr[quadrupol]">   -492.83447857 </i>
    <i name="Echarged">      0.00000000 </i>
    <i name="Edipol_quadrupol">      0.00000000 </i>
    <i name="Eion">      0.00000000 </i>
   </dipole>
   <energy>
    <i name="e_fr_energy">   -130.20597908 </i>
    <i name="e_wo_entrp">   -130.20063583 </i>
    <i name="e_0_energy">   -130.20330746 </i>
   </energy>
  </scstep>
  <scstep>
   <time name="diag">    0.66    0.66</time>
   <time name="diis">    2.29    2.29</time>
   <time name="orth">    0.16    0.16</time>
   <time name="total">    3.77    3.78</time>
   <dipole>
    <v name="dipole">      0.00000000       0.00000000       0.01385975 </v>
    <i name="Tr[quadrupol]">   -493.12477533 </i>
    <i name="Echarged">      0.00000000 </i>
    <i name="Edipol_quadrupol">      0.00000000 </i>
    <i name="Eion">      0.00000000 </i>
   </dipole>
   <energy>
    <i name="e_fr_energy">   -129.70387202 </i>
    <i name="e_wo_entrp">   -129.69423306 </i>
    <i name="e_0_energy">   -129.69905254 </i>
   </energy>
  </scstep>
  <scstep>
   <time name="diag">    0.66    0.66</time>
   <time name="diis">    2.35    2.36</time>
   <time name="orth">    0.16    0.16</time>
   <time name="total">    3.84    3.85</time>
   <dipole>
    <v name="dipole">      0.00000000       0.00000000      -0.00882228 </v>
    <i name="Tr[quadrupol]">   -493.33177726 </i>
    <i name="Echarged">      0.00000000 </i>
    <i name="Edipol_quadrupol">      0.00000000 </i>
    <i name="Eion">      0.00000000 </i>
   </dipole>
   <energy>
    <i name="e_fr_energy">   -129.41591454 </i>
    <i name="e_wo_entrp">   -129.41483846 </i>
    <i name="e_0_energy">   -129.41537650 </i>
   </energy>
  </scstep>
  <scstep>
   <time name="diag">    0.66    0.66</time>
   <time name="diis">    2.28    2.28</time>
   <time name="orth">    0.16    0.16</time>
   <time name="total">    3.76    3.76</time>
   <dipole>
    <v name="dipole">      0.00000000       0.00000000      -0.00810337 </v>
    <i name="Tr[quadrupol]">   -493.41266270 </i>
    <i name="Echarged">      0.00000000 </i>
    <i name="Edipol_quadrupol">      0.00000000 </i>
    <i name="Eion">      0.00000000 </i>
   </dipole>
   <energy>
    <i name="e_fr_energy">   -129.39280167 </i>
    <i name="e_wo_entrp">   -129.39129803 </i>
    <i name="e_0_energy">   -129.39204985 </i>
   </energy>
  </scstep>
  <scstep>
   <time name="diag">    0.66    0.66</time>
   <time name="diis">    2.25    2.25</time>
   <time name="orth">    0.16    0.16</time>
   <time name="total">    3.73    3.73</time>
   <dipole>
    <v name="dipole">      0.00000000       0.00000000      -0.02414719 </v>
    <i name="Tr[quadrupol]">   -493.87387845 </i>
    <i name="Echarged">      0.00000000 </i>
    <i name="Edipol_quadrupol">      0.00000000 </i>
    <i name="Eion">      0.00000000 </i>
   </dipole>
   <energy>
    <i name="e_fr_energy">   -129.01752846 </i>
    <i name="e_wo_entrp">   -129.01674743 </i>
    <i name="e_0_energy">   -129.01713794 </i>
   </energy>
  </scstep>
  <scstep>
   <time name="diag">    0.65    0.66</time>
   <time name="diis">    2.26    2.27</time>
   <time name="orth">    0.16    0.16</time>
   <time name="total">    3.75    3.75</time>
   <dipole>
    <v name="dipole">      0.00000000       0.00000000      -0.07653558 </v>
    <i name="Tr[quadrupol]">   -494.50295534 </i>
    <i name="Echarged">      0.00000000 </i>
    <i name="Edipol_quadrupol">      0.00000000 </i>
    <i name="Eion">      0.00000000 </i>
   </dipole>
   <energy>
    <i name="e_fr_energy">   -128.46862096 </i>
    <i name="e_wo_entrp">   -128.45993196 </i>
    <i name="e_0_energy">   -128.46427646 </i>
   </energy>
  </scstep>
  <scstep>
   <time name="diag">    0.65    0.65</time>
   <time name="diis">    2.34    2.34</time>
   <time name="orth">    0.16    0.16</time>
   <time name="total">    3.82    3.82</time>
   <dipole>
    <v name="dipole">      0.00000000       0.00000000      -0.07813368 </v>
    <i name="Tr[quadrupol]">   -494.82882680 </i>
    <i name="Echarged">      0.00000000 </i>
    <i name="Edipol_quadrupol">      0.00000000 </i>
    <i name="Eion">      0.00000000 </i>
   </dipole>
   <energy>
    <i name="e_fr_energy">   -128.41928729 </i>
    <i name="e_wo_entrp">   -128.40158076 </i>
    <i name="e_0_energy">   -128.41043402 </i>
   </energy>
  </scstep>
  <scstep>
   <time name="diag">    0.65    0.65</time>
   <time name="diis">    2.36    2.36</time>
   <time name="orth">    0.16    0.16</time>
   <time name="total">    3.84    3.85</time>
   <dipole>
    <v name="dipole">      0.00000000       0.00000000      -0.07602842 </v>
    <i name="Tr[quadrupol]">   -494.80510402 </i>
    <i name="Echarged">      0.00000000 </i>
    <i name="Edipol_quadrupol">      0.00000000 </i>
    <i name="Eion">      0.00000000 </i>
   </dipole>
   <energy>
    <i name="e_fr_energy">   -128.42585660 </i>
    <i name="e_wo_entrp">   -128.41107097 </i>
    <i name="e_0_energy">   -128.41846378 </i>
   </energy>
  </scstep>
  <scstep>
   <time name="diag">    0.66    0.66</time>
   <time name="diis">    2.21    2.21</time>
   <time name="orth">    0.16    0.16</time>
   <time name="total">    3.69    3.70</time>
   <dipole>
    <v name="dipole">      0.00000000       0.00000000      -0.05770798 </v>
    <i name="Tr[quadrupol]">   -494.82769892 </i>
    <i name="Echarged">      0.00000000 </i>
    <i name="Edipol_quadrupol">      0.00000000 </i>
    <i name="Eion">      0.00000000 </i>
   </dipole>
   <energy>
    <i name="e_fr_energy">   -128.48995889 </i>
    <i name="e_wo_entrp">   -128.48156567 </i>
    <i name="e_0_energy">   -128.48576228 </i>
   </energy>
  </scstep>
  <scstep>
   <time name="diag">    0.66    0.66</time>
   <time name="diis">    2.22    2.22</time>
   <time name="orth">    0.16    0.16</time>
   <time name="total">    3.71    3.71</time>
   <dipole>
    <v name="dipole">      0.00000000       0.00000000      -0.05344667 </v>
    <i name="Tr[quadrupol]">   -495.00501689 </i>
    <i name="Echarged">      0.00000000 </i>
    <i name="Edipol_quadrupol">      0.00000000 </i>
    <i name="Eion">      0.00000000 </i>
   </dipole>
   <energy>
    <i name="e_fr_energy">   -128.47990673 </i>
    <i name="e_wo_entrp">   -128.46804393 </i>
    <i name="e_0_energy">   -128.47397533 </i>
   </energy>
  </scstep>
  <scstep>
   <time name="diag">    0.66    0.66</time>
   <time name="diis">    2.20    2.21</time>
   <time name="orth">    0.16    0.16</time>
   <time name="total">    3.69    3.69</time>
   <dipole>
    <v name="dipole">      0.00000000       0.00000000      -0.06621354 </v>
    <i name="Tr[quadrupol]">   -495.17863653 </i>
    <i name="Echarged">      0.00000000 </i>
    <i name="Edipol_quadrupol">      0.00000000 </i>
    <i name="Eion">      0.00000000 </i>
   </dipole>
   <energy>
    <i name="e_fr_energy">   -128.52243013 </i>
    <i name="e_wo_entrp">   -128.48678512 </i>
    <i name="e_0_energy">   -128.50460762 </i>
   </energy>
  </scstep>
  <scstep>
   <time name="diag">    0.65    0.65</time>
   <time name="diis">    2.11    2.11</time>
   <time name="orth">    0.16    0.16</time>
   <time name="total">    3.59    3.60</time>
   <dipole>
    <v name="dipole">      0.00000000       0.00000000      -0.05785239 </v>
    <i name="Tr[quadrupol]">   -495.10128496 </i>
    <i name="Echarged">      0.00000000 </i>
    <i name="Edipol_quadrupol">      0.00000000 </i>
    <i name="Eion">      0.00000000 </i>
   </dipole>
   <energy>
    <i name="e_fr_energy">   -128.45825758 </i>
    <i name="e_wo_entrp">   -128.42278465 </i>
    <i name="e_0_energy">   -128.44052111 </i>
   </energy>
  </scstep>
  <scstep>
   <time name="diag">    0.66    0.66</time>
   <time name="diis">    2.01    2.01</time>
   <time name="orth">    0.16    0.16</time>
   <time name="total">    3.50    3.50</time>
   <dipole>
    <v name="dipole">      0.00000000       0.00000000      -0.05704683 </v>
    <i name="Tr[quadrupol]">   -495.09337690 </i>
    <i name="Echarged">      0.00000000 </i>
    <i name="Edipol_quadrupol">      0.00000000 </i>
    <i name="Eion">      0.00000000 </i>
   </dipole>
   <energy>
    <i name="e_fr_energy">   -128.49835815 </i>
    <i name="e_wo_entrp">   -128.46832411 </i>
    <i name="e_0_energy">   -128.48334113 </i>
   </energy>
  </scstep>
  <scstep>
   <time name="diag">    0.66    0.66</time>
   <time name="diis">    1.86    1.86</time>
   <time name="orth">    0.16    0.16</time>
   <time name="total">    3.35    3.36</time>
   <dipole>
    <v name="dipole">      0.00000000       0.00000000      -0.03639141 </v>
    <i name="Tr[quadrupol]">   -495.16341892 </i>
    <i name="Echarged">      0.00000000 </i>
    <i name="Edipol_quadrupol">      0.00000000 </i>
    <i name="Eion">      0.00000000 </i>
   </dipole>
   <energy>
    <i name="e_fr_energy">   -128.50671919 </i>
    <i name="e_wo_entrp">   -128.49244556 </i>
    <i name="e_0_energy">   -128.49958237 </i>
   </energy>
  </scstep>
  <scstep>
   <time name="diag">    0.66    0.66</time>
   <time name="diis">    2.12    2.12</time>
   <time name="orth">    0.16    0.16</time>
   <time name="total">    3.61    3.61</time>
   <dipole>
    <v name="dipole">      0.00000000       0.00000000      -0.05707879 </v>
    <i name="Tr[quadrupol]">   -495.30959069 </i>
    <i name="Echarged">      0.00000000 </i>
    <i name="Edipol_quadrupol">      0.00000000 </i>
    <i name="Eion">      0.00000000 </i>
   </dipole>
   <energy>
    <i name="e_fr_energy">   -128.58708400 </i>
    <i name="e_wo_entrp">   -128.55785675 </i>
    <i name="e_0_energy">   -128.57247038 </i>
   </energy>
  </scstep>
  <scstep>
   <time name="diag">    0.65    0.66</time>
   <time name="diis">    2.06    2.06</time>
   <time name="orth">    0.16    0.16</time>
   <time name="total">    3.55    3.56</time>
   <dipole>
    <v name="dipole">      0.00000000       0.00000000      -0.06739617 </v>
    <i name="Tr[quadrupol]">   -495.39402305 </i>
    <i name="Echarged">      0.00000000 </i>
    <i name="Edipol_quadrupol">      0.00000000 </i>
    <i name="Eion">      0.00000000 </i>
   </dipole>
   <energy>
    <i name="e_fr_energy">   -128.64327288 </i>
    <i name="e_wo_entrp">   -128.61926645 </i>
    <i name="e_0_energy">   -128.63126967 </i>
   </energy>
  </scstep>
  <scstep>
   <time name="diag">    0.66    0.66</time>
   <time name="diis">    1.79    1.80</time>
   <time name="orth">    0.16    0.16</time>
   <time name="total">    3.29    3.29</time>
   <dipole>
    <v name="dipole">      0.00000000       0.00000000      -0.06668973 </v>
    <i name="Tr[quadrupol]">   -495.31282557 </i>
    <i name="Echarged">      0.00000000 </i>
    <i name="Edipol_quadrupol">      0.00000000 </i>
    <i name="Eion">      0.00000000 </i>
   </dipole>
   <energy>
    <i name="e_fr_energy">   -128.60261652 </i>
    <i name="e_wo_entrp">   -128.57836005 </i>
    <i name="e_0_energy">   -128.59048828 </i>
   </energy>
  </scstep>
  <scstep>
   <time name="diag">    0.65    0.66</time>
   <time name="diis">    1.44    1.44</time>
   <time name="orth">    0.16    0.16</time>
   <time name="total">    2.93    2.94</time>
   <dipole>
    <v name="dipole">      0.00000000       0.00000000      -0.06643051 </v>
    <i name="Tr[quadrupol]">   -495.31266454 </i>
    <i name="Echarged">      0.00000000 </i>
    <i name="Edipol_quadrupol">      0.00000000 </i>
    <i name="Eion">      0.00000000 </i>
   </dipole>
   <energy>
    <i name="e_fr_energy">   -128.59594356 </i>
    <i name="e_wo_entrp">   -128.57165999 </i>
    <i name="e_0_energy">   -128.58380178 </i>
   </energy>
  </scstep>
  <scstep>
   <time name="diag">    0.66    0.66</time>
   <time name="diis">    1.42    1.42</time>
   <time name="orth">    0.16    0.16</time>
   <time name="total">    2.91    2.92</time>
   <dipole>
    <v name="dipole">      0.00000000       0.00000000      -0.06537508 </v>
    <i name="Tr[quadrupol]">   -495.30200162 </i>
    <i name="Echarged">      0.00000000 </i>
    <i name="Edipol_quadrupol">      0.00000000 </i>
    <i name="Eion">      0.00000000 </i>
   </dipole>
   <energy>
    <i name="e_fr_energy">   -128.58466404 </i>
    <i name="e_wo_entrp">   -128.55973268 </i>
    <i name="e_0_energy">   -128.57219836 </i>
   </energy>
  </scstep>
  <scstep>
   <time name="diag">    0.65    0.65</time>
   <time name="diis">    1.53    1.53</time>
   <time name="orth">    0.16    0.16</time>
   <time name="total">    3.02    3.03</time>
   <dipole>
    <v name="dipole">      0.00000000       0.00000000      -0.06306103 </v>
    <i name="Tr[quadrupol]">   -495.28269913 </i>
    <i name="Echarged">      0.00000000 </i>
    <i name="Edipol_quadrupol">      0.00000000 </i>
    <i name="Eion">      0.00000000 </i>
   </dipole>
   <energy>
    <i name="e_fr_energy">   -128.56937570 </i>
    <i name="e_wo_entrp">   -128.54312471 </i>
    <i name="e_0_energy">   -128.55625020 </i>
   </energy>
  </scstep>
  <scstep>
   <time name="diag">    0.66    0.66</time>
   <time name="diis">    1.43    1.44</time>
   <time name="orth">    0.16    0.16</time>
   <time name="total">    2.93    2.94</time>
   <dipole>
    <v name="dipole">      0.00000000       0.00000000      -0.06098358 </v>
    <i name="Tr[quadrupol]">   -495.26884943 </i>
    <i name="Echarged">      0.00000000 </i>
    <i name="Edipol_quadrupol">      0.00000000 </i>
    <i name="Eion">      0.00000000 </i>
   </dipole>
   <energy>
    <i name="e_fr_energy">   -128.56267991 </i>
    <i name="e_wo_entrp">   -128.53568110 </i>
    <i name="e_0_energy">   -128.54918051 </i>
   </energy>
  </scstep>
  <scstep>
   <time name="diag">    0.66    0.66</time>
   <time name="diis">    1.42    1.42</time>
   <time name="orth">    0.16    0.16</time>
   <time name="total">    2.92    3.03</time>
   <dipole>
    <v name="dipole">      0.00000000       0.00000000      -0.05872872 </v>
    <i name="Tr[quadrupol]">   -495.26774557 </i>
    <i name="Echarged">      0.00000000 </i>
    <i name="Edipol_quadrupol">      0.00000000 </i>
    <i name="Eion">      0.00000000 </i>
   </dipole>
   <energy>
    <i name="e_fr_energy">   -128.56069044 </i>
    <i name="e_wo_entrp">   -128.53332979 </i>
    <i name="e_0_energy">   -128.54701012 </i>
   </energy>
  </scstep>
  <scstep>
   <time name="diag">    0.65    0.66</time>
   <time name="diis">    1.57    1.57</time>
   <time name="orth">    0.16    0.16</time>
   <time name="total">    3.06    3.08</time>
   <dipole>
    <v name="dipole">      0.00000000       0.00000000      -0.05904895 </v>
    <i name="Tr[quadrupol]">   -495.30538708 </i>
    <i name="Echarged">      0.00000000 </i>
    <i name="Edipol_quadrupol">      0.00000000 </i>
    <i name="Eion">      0.00000000 </i>
   </dipole>
   <energy>
    <i name="e_fr_energy">   -128.59884050 </i>
    <i name="e_wo_entrp">   -128.57359884 </i>
    <i name="e_0_energy">   -128.58621967 </i>
   </energy>
  </scstep>
  <scstep>
   <time name="diag">    0.66    0.66</time>
   <time name="diis">    1.36    1.36</time>
   <time name="orth">    0.16    0.16</time>
   <time name="total">    2.86    2.86</time>
   <dipole>
    <v name="dipole">      0.00000000       0.00000000      -0.05905120 </v>
    <i name="Tr[quadrupol]">   -495.30659327 </i>
    <i name="Echarged">      0.00000000 </i>
    <i name="Edipol_quadrupol">      0.00000000 </i>
    <i name="Eion">      0.00000000 </i>
   </dipole>
   <energy>
    <i name="e_fr_energy">   -128.59508329 </i>
    <i name="e_wo_entrp">   -128.56993424 </i>
    <i name="e_0_energy">   -128.58250876 </i>
   </energy>
  </scstep>
  <scstep>
   <time name="diag">    0.66    0.66</time>
   <time name="diis">    1.70    1.70</time>
   <time name="orth">    0.16    0.16</time>
   <time name="total">    3.20    3.20</time>
   <dipole>
    <v name="dipole">      0.00000000       0.00000000      -0.05869741 </v>
    <i name="Tr[quadrupol]">   -495.34454744 </i>
    <i name="Echarged">      0.00000000 </i>
    <i name="Edipol_quadrupol">      0.00000000 </i>
    <i name="Eion">      0.00000000 </i>
   </dipole>
   <energy>
    <i name="e_fr_energy">   -128.62156034 </i>
    <i name="e_wo_entrp">   -128.59819866 </i>
    <i name="e_0_energy">   -128.60987950 </i>
   </energy>
  </scstep>
  <scstep>
   <time name="diag">    0.66    0.66</time>
   <time name="diis">    1.73    1.73</time>
   <time name="orth">    0.16    0.16</time>
   <time name="total">    3.23    3.23</time>
   <dipole>
    <v name="dipole">      0.00000000       0.00000000      -0.05750278 </v>
    <i name="Tr[quadrupol]">   -495.38666919 </i>
    <i name="Echarged">      0.00000000 </i>
    <i name="Edipol_quadrupol">      0.00000000 </i>
    <i name="Eion">      0.00000000 </i>
   </dipole>
   <energy>
    <i name="e_fr_energy">   -128.64306823 </i>
    <i name="e_wo_entrp">   -128.62128120 </i>
    <i name="e_0_energy">   -128.63217471 </i>
   </energy>
  </scstep>
  <scstep>
   <time name="diag">    0.66    0.66</time>
   <time name="diis">    1.88    1.88</time>
   <time name="orth">    0.16    0.16</time>
   <time name="total">    3.38    3.39</time>
   <dipole>
    <v name="dipole">      0.00000000       0.00000000      -0.05111058 </v>
    <i name="Tr[quadrupol]">   -495.37529623 </i>
    <i name="Echarged">      0.00000000 </i>
    <i name="Edipol_quadrupol">      0.00000000 </i>
    <i name="Eion">      0.00000000 </i>
   </dipole>
   <energy>
    <i name="e_fr_energy">   -128.60506460 </i>
    <i name="e_wo_entrp">   -128.58125442 </i>
    <i name="e_0_energy">   -128.59315951 </i>
   </energy>
  </scstep>
  <scstep>
   <time name="diag">    0.66    0.66</time>
   <time name="diis">    1.88    1.88</time>
   <time name="orth">    0.16    0.16</time>
   <time name="total">    3.39    3.39</time>
   <dipole>
    <v name="dipole">      0.00000000       0.00000000      -0.04738208 </v>
    <i name="Tr[quadrupol]">   -495.26468502 </i>
    <i name="Echarged">      0.00000000 </i>
    <i name="Edipol_quadrupol">      0.00000000 </i>
    <i name="Eion">      0.00000000 </i>
   </dipole>
   <energy>
    <i name="e_fr_energy">   -128.59140998 </i>
    <i name="e_wo_entrp">   -128.56725473 </i>
    <i name="e_0_energy">   -128.57933235 </i>
   </energy>
  </scstep>
  <scstep>
   <time name="diag">    0.66    0.66</time>
   <time name="diis">    2.02    2.02</time>
   <time name="orth">    0.16    0.16</time>
   <time name="total">    3.52    3.53</time>
   <dipole>
    <v name="dipole">      0.00000000       0.00000000      -0.03474361 </v>
    <i name="Tr[quadrupol]">   -495.31944197 </i>
    <i name="Echarged">      0.00000000 </i>
    <i name="Edipol_quadrupol">      0.00000000 </i>
    <i name="Eion">      0.00000000 </i>
   </dipole>
   <energy>
    <i name="e_fr_energy">   -128.52397377 </i>
    <i name="e_wo_entrp">   -128.49425339 </i>
    <i name="e_0_energy">   -128.50911358 </i>
   </energy>
  </scstep>
  <scstep>
   <time name="diag">    0.66    0.66</time>
   <time name="diis">    1.95    1.96</time>
   <time name="orth">    0.16    0.16</time>
   <time name="total">    3.46    3.46</time>
   <dipole>
    <v name="dipole">      0.00000000       0.00000000      -0.03950557 </v>
    <i name="Tr[quadrupol]">   -495.47656261 </i>
    <i name="Echarged">      0.00000000 </i>
    <i name="Edipol_quadrupol">      0.00000000 </i>
    <i name="Eion">      0.00000000 </i>
   </dipole>
   <energy>
    <i name="e_fr_energy">   -128.60469403 </i>
    <i name="e_wo_entrp">   -128.58147059 </i>
    <i name="e_0_energy">   -128.59308231 </i>
   </energy>
  </scstep>
  <scstep>
   <time name="diag">    0.66    0.66</time>
   <time name="diis">    1.81    1.81</time>
   <time name="orth">    0.16    0.16</time>
   <time name="total">    3.31    3.31</time>
   <dipole>
    <v name="dipole">      0.00000000       0.00000000      -0.03408303 </v>
    <i name="Tr[quadrupol]">   -495.54930230 </i>
    <i name="Echarged">      0.00000000 </i>
    <i name="Edipol_quadrupol">      0.00000000 </i>
    <i name="Eion">      0.00000000 </i>
   </dipole>
   <energy>
    <i name="e_fr_energy">   -128.57803620 </i>
    <i name="e_wo_entrp">   -128.55471676 </i>
    <i name="e_0_energy">   -128.56637648 </i>
   </energy>
  </scstep>
  <scstep>
   <time name="diag">    0.66    0.66</time>
   <time name="diis">    1.73    1.73</time>
   <time name="orth">    0.16    0.16</time>
   <time name="total">    3.24    3.24</time>
   <dipole>
    <v name="dipole">      0.00000000       0.00000000      -0.02861620 </v>
    <i name="Tr[quadrupol]">   -495.60649243 </i>
    <i name="Echarged">      0.00000000 </i>
    <i name="Edipol_quadrupol">      0.00000000 </i>
    <i name="Eion">      0.00000000 </i>
   </dipole>
   <energy>
    <i name="e_fr_energy">   -128.56984019 </i>
    <i name="e_wo_entrp">   -128.54586792 </i>
    <i name="e_0_energy">   -128.55785405 </i>
   </energy>
  </scstep>
  <scstep>
   <time name="diag">    0.66    0.66</time>
   <time name="diis">    1.78    1.78</time>
   <time name="orth">    0.16    0.16</time>
   <time name="total">    3.29    3.30</time>
   <dipole>
    <v name="dipole">      0.00000000       0.00000000      -0.02167215 </v>
    <i name="Tr[quadrupol]">   -495.63573853 </i>
    <i name="Echarged">      0.00000000 </i>
    <i name="Edipol_quadrupol">      0.00000000 </i>
    <i name="Eion">      0.00000000 </i>
   </dipole>
   <energy>
    <i name="e_fr_energy">   -128.54982378 </i>
    <i name="e_wo_entrp">   -128.52180589 </i>
    <i name="e_0_energy">   -128.53581483 </i>
   </energy>
  </scstep>
  <scstep>
   <time name="diag">    0.66    0.66</time>
   <time name="diis">    1.85    1.85</time>
   <time name="orth">    0.16    0.16</time>
   <time name="total">    3.35    3.36</time>
   <dipole>
    <v name="dipole">      0.00000000       0.00000000      -0.01877422 </v>
    <i name="Tr[quadrupol]">   -495.68134747 </i>
    <i name="Echarged">      0.00000000 </i>
    <i name="Edipol_quadrupol">      0.00000000 </i>
    <i name="Eion">      0.00000000 </i>
   </dipole>
   <energy>
    <i name="e_fr_energy">   -128.56025260 </i>
    <i name="e_wo_entrp">   -128.53170098 </i>
    <i name="e_0_energy">   -128.54597679 </i>
   </energy>
  </scstep>
  <scstep>
   <time name="diag">    0.66    0.66</time>
   <time name="diis">    1.74    1.75</time>
   <time name="orth">    0.16    0.16</time>
   <time name="total">    3.25    3.26</time>
   <dipole>
    <v name="dipole">      0.00000000       0.00000000      -0.01437915 </v>
    <i name="Tr[quadrupol]">   -495.71365448 </i>
    <i name="Echarged">      0.00000000 </i>
    <i name="Edipol_quadrupol">      0.00000000 </i>
    <i name="Eion">      0.00000000 </i>
   </dipole>
   <energy>
    <i name="e_fr_energy">   -128.55688436 </i>
    <i name="e_wo_entrp">   -128.52729442 </i>
    <i name="e_0_energy">   -128.54208939 </i>
   </energy>
  </scstep>
  <scstep>
   <time name="diag">    0.66    0.66</time>
   <time name="diis">    1.46    1.46</time>
   <time name="orth">    0.16    0.16</time>
   <time name="total">    2.97    2.97</time>
   <dipole>
    <v name="dipole">      0.00000000       0.00000000      -0.01365248 </v>
    <i name="Tr[quadrupol]">   -495.70249495 </i>
    <i name="Echarged">      0.00000000 </i>
    <i name="Edipol_quadrupol">      0.00000000 </i>
    <i name="Eion">      0.00000000 </i>
   </dipole>
   <energy>
    <i name="e_fr_energy">   -128.55748453 </i>
    <i name="e_wo_entrp">   -128.52748055 </i>
    <i name="e_0_energy">   -128.54248254 </i>
   </energy>
  </scstep>
  <scstep>
   <time name="diag">    0.66    0.66</time>
   <time name="diis">    1.41    1.41</time>
   <time name="orth">    0.16    0.16</time>
   <time name="total">    2.92    2.92</time>
   <dipole>
    <v name="dipole">      0.00000000       0.00000000      -0.01385899 </v>
    <i name="Tr[quadrupol]">   -495.70052590 </i>
    <i name="Echarged">      0.00000000 </i>
    <i name="Edipol_quadrupol">      0.00000000 </i>
    <i name="Eion">      0.00000000 </i>
   </dipole>
   <energy>
    <i name="e_fr_energy">   -128.56203556 </i>
    <i name="e_wo_entrp">   -128.53207763 </i>
    <i name="e_0_energy">   -128.54705659 </i>
   </energy>
  </scstep>
  <scstep>
   <time name="diag">    0.66    0.66</time>
   <time name="diis">    1.31    1.31</time>
   <time name="orth">    0.16    0.16</time>
   <time name="total">    2.82    2.83</time>
   <dipole>
    <v name="dipole">      0.00000000       0.00000000      -0.01266772 </v>
    <i name="Tr[quadrupol]">   -495.71006930 </i>
    <i name="Echarged">      0.00000000 </i>
    <i name="Edipol_quadrupol">      0.00000000 </i>
    <i name="Eion">      0.00000000 </i>
   </dipole>
   <energy>
    <i name="e_fr_energy">   -128.56049020 </i>
    <i name="e_wo_entrp">   -128.53043319 </i>
    <i name="e_0_energy">   -128.54546169 </i>
   </energy>
  </scstep>
  <scstep>
   <time name="diag">    0.65    0.66</time>
   <time name="diis">    1.52    1.52</time>
   <time name="orth">    0.16    0.16</time>
   <time name="total">    3.02    3.02</time>
   <dipole>
    <v name="dipole">      0.00000000       0.00000000      -0.00913513 </v>
    <i name="Tr[quadrupol]">   -495.71985280 </i>
    <i name="Echarged">      0.00000000 </i>
    <i name="Edipol_quadrupol">      0.00000000 </i>
    <i name="Eion">      0.00000000 </i>
   </dipole>
   <energy>
    <i name="e_fr_energy">   -128.55229823 </i>
    <i name="e_wo_entrp">   -128.52199906 </i>
    <i name="e_0_energy">   -128.53714864 </i>
   </energy>
  </scstep>
  <scstep>
   <time name="diag">    0.66    0.66</time>
   <time name="diis">    1.48    1.49</time>
   <time name="orth">    0.16    0.16</time>
   <time name="total">    2.99    2.99</time>
   <dipole>
    <v name="dipole">      0.00000000       0.00000000      -0.01041138 </v>
    <i name="Tr[quadrupol]">   -495.66012448 </i>
    <i name="Echarged">      0.00000000 </i>
    <i name="Edipol_quadrupol">      0.00000000 </i>
    <i name="Eion">      0.00000000 </i>
   </dipole>
   <energy>
    <i name="e_fr_energy">   -128.56036935 </i>
    <i name="e_wo_entrp">   -128.52985796 </i>
    <i name="e_0_energy">   -128.54511365 </i>
   </energy>
  </scstep>
  <scstep>
   <time name="diag">    0.66    0.66</time>
   <time name="diis">    1.28    1.28</time>
   <time name="orth">    0.16    0.16</time>
   <time name="total">    2.79    2.79</time>
   <dipole>
    <v name="dipole">      0.00000000       0.00000000      -0.01012407 </v>
    <i name="Tr[quadrupol]">   -495.63772180 </i>
    <i name="Echarged">      0.00000000 </i>
    <i name="Edipol_quadrupol">      0.00000000 </i>
    <i name="Eion">      0.00000000 </i>
   </dipole>
   <energy>
    <i name="e_fr_energy">   -128.56153348 </i>
    <i name="e_wo_entrp">   -128.53101463 </i>
    <i name="e_0_energy">   -128.54627405 </i>
   </energy>
  </scstep>
  <scstep>
   <time name="diag">    0.66    0.66</time>
   <time name="diis">    1.16    1.16</time>
   <time name="orth">    0.16    0.16</time>
   <time name="total">    2.67    2.67</time>
   <dipole>
    <v name="dipole">      0.00000000       0.00000000      -0.00931705 </v>
    <i name="Tr[quadrupol]">   -495.63968007 </i>
    <i name="Echarged">      0.00000000 </i>
    <i name="Edipol_quadrupol">      0.00000000 </i>
    <i name="Eion">      0.00000000 </i>
   </dipole>
   <energy>
    <i name="e_fr_energy">   -128.55954481 </i>
    <i name="e_wo_entrp">   -128.52909155 </i>
    <i name="e_0_energy">   -128.54431818 </i>
   </energy>
  </scstep>
  <scstep>
   <time name="diag">    0.66    0.66</time>
   <time name="diis">    1.34    1.34</time>
   <time name="orth">    0.16    0.16</time>
   <time name="total">    2.85    2.86</time>
   <dipole>
    <v name="dipole">      0.00000000       0.00000000      -0.00624117 </v>
    <i name="Tr[quadrupol]">   -495.63612795 </i>
    <i name="Echarged">      0.00000000 </i>
    <i name="Edipol_quadrupol">      0.00000000 </i>
    <i name="Eion">      0.00000000 </i>
   </dipole>
   <energy>
    <i name="e_fr_energy">   -128.55459938 </i>
    <i name="e_wo_entrp">   -128.52603379 </i>
    <i name="e_0_energy">   -128.54031659 </i>
   </energy>
  </scstep>
  <scstep>
   <time name="diag">    0.66    0.66</time>
   <time name="diis">    1.99    2.00</time>
   <time name="orth">    0.16    0.16</time>
   <time name="total">    3.49    3.50</time>
   <dipole>
    <v name="dipole">      0.00000000       0.00000000       0.01014644 </v>
    <i name="Tr[quadrupol]">   -495.67744087 </i>
    <i name="Echarged">      0.00000000 </i>
    <i name="Edipol_quadrupol">      0.00000000 </i>
    <i name="Eion">      0.00000000 </i>
   </dipole>
   <energy>
    <i name="e_fr_energy">   -128.55337212 </i>
    <i name="e_wo_entrp">   -128.54020683 </i>
    <i name="e_0_energy">   -128.54678947 </i>
   </energy>
  </scstep>
  <scstep>
   <time name="diag">    0.66    0.66</time>
   <time name="diis">    1.76    1.76</time>
   <time name="orth">    0.16    0.16</time>
   <time name="total">    3.26    3.26</time>
   <dipole>
    <v name="dipole">      0.00000000       0.00000000       0.01048066 </v>
    <i name="Tr[quadrupol]">   -495.66648879 </i>
    <i name="Echarged">      0.00000000 </i>
    <i name="Edipol_quadrupol">      0.00000000 </i>
    <i name="Eion">      0.00000000 </i>
   </dipole>
   <energy>
    <i name="e_fr_energy">   -128.55501171 </i>
    <i name="e_wo_entrp">   -128.54305592 </i>
    <i name="e_0_energy">   -128.54903382 </i>
   </energy>
  </scstep>
  <scstep>
   <time name="diag">    0.66    0.66</time>
   <time name="diis">    1.44    1.44</time>
   <time name="orth">    0.16    0.16</time>
   <time name="total">    2.94    2.95</time>
   <dipole>
    <v name="dipole">      0.00000000       0.00000000       0.01079161 </v>
    <i name="Tr[quadrupol]">   -495.66715208 </i>
    <i name="Echarged">      0.00000000 </i>
    <i name="Edipol_quadrupol">      0.00000000 </i>
    <i name="Eion">      0.00000000 </i>
   </dipole>
   <energy>
    <i name="e_fr_energy">   -128.55328355 </i>
    <i name="e_wo_entrp">   -128.54156646 </i>
    <i name="e_0_energy">   -128.54742501 </i>
   </energy>
  </scstep>
  <scstep>
   <time name="diag">    0.66    0.66</time>
   <time name="diis">    1.40    1.40</time>
   <time name="orth">    0.16    0.16</time>
   <time name="total">    2.90    2.91</time>
   <dipole>
    <v name="dipole">      0.00000000       0.00000000       0.00926753 </v>
    <i name="Tr[quadrupol]">   -495.67444058 </i>
    <i name="Echarged">      0.00000000 </i>
    <i name="Edipol_quadrupol">      0.00000000 </i>
    <i name="Eion">      0.00000000 </i>
   </dipole>
   <energy>
    <i name="e_fr_energy">   -128.54960668 </i>
    <i name="e_wo_entrp">   -128.53502977 </i>
    <i name="e_0_energy">   -128.54231822 </i>
   </energy>
  </scstep>
  <scstep>
   <time name="diag">    0.66    0.66</time>
   <time name="diis">    1.99    1.99</time>
   <time name="orth">    0.16    0.16</time>
   <time name="total">    3.50    3.50</time>
   <dipole>
    <v name="dipole">      0.00000000       0.00000000       0.00546771 </v>
    <i name="Tr[quadrupol]">   -495.73101404 </i>
    <i name="Echarged">      0.00000000 </i>
    <i name="Edipol_quadrupol">      0.00000000 </i>
    <i name="Eion">      0.00000000 </i>
   </dipole>
   <energy>
    <i name="e_fr_energy">   -128.55337885 </i>
    <i name="e_wo_entrp">   -128.52665076 </i>
    <i name="e_0_energy">   -128.54001481 </i>
   </energy>
  </scstep>
  <scstep>
   <time name="diag">    0.66    0.66</time>
   <time name="diis">    2.01    2.01</time>
   <time name="orth">    0.16    0.16</time>
   <time name="total">    3.51    3.52</time>
   <dipole>
    <v name="dipole">      0.00000000       0.00000000       0.00277360 </v>
    <i name="Tr[quadrupol]">   -495.76206187 </i>
    <i name="Echarged">      0.00000000 </i>
    <i name="Edipol_quadrupol">      0.00000000 </i>
    <i name="Eion">      0.00000000 </i>
   </dipole>
   <energy>
    <i name="e_fr_energy">   -128.56674957 </i>
    <i name="e_wo_entrp">   -128.53770786 </i>
    <i name="e_0_energy">   -128.55222872 </i>
   </energy>
  </scstep>
  <scstep>
   <time name="diag">    0.66    0.66</time>
   <time name="diis">    1.73    1.73</time>
   <time name="orth">    0.16    0.16</time>
   <time name="total">    3.24    3.24</time>
   <dipole>
    <v name="dipole">      0.00000000       0.00000000       0.00326334 </v>
    <i name="Tr[quadrupol]">   -495.73599194 </i>
    <i name="Echarged">      0.00000000 </i>
    <i name="Edipol_quadrupol">      0.00000000 </i>
    <i name="Eion">      0.00000000 </i>
   </dipole>
   <energy>
    <i name="e_fr_energy">   -128.56422170 </i>
    <i name="e_wo_entrp">   -128.53526446 </i>
    <i name="e_0_energy">   -128.54974308 </i>
   </energy>
  </scstep>
  <scstep>
   <time name="diag">    0.66    0.66</time>
   <time name="diis">    1.50    1.50</time>
   <time name="orth">    0.16    0.16</time>
   <time name="total">    3.01    3.01</time>
   <dipole>
    <v name="dipole">      0.00000000       0.00000000       0.00298061 </v>
    <i name="Tr[quadrupol]">   -495.78255507 </i>
    <i name="Echarged">      0.00000000 </i>
    <i name="Edipol_quadrupol">      0.00000000 </i>
    <i name="Eion">      0.00000000 </i>
   </dipole>
   <energy>
    <i name="e_fr_energy">   -128.56383079 </i>
    <i name="e_wo_entrp">   -128.53489243 </i>
    <i name="e_0_energy">   -128.54936161 </i>
   </energy>
  </scstep>
  <scstep>
   <time name="diag">    0.66    0.66</time>
   <time name="diis">    1.37    1.37</time>
   <time name="orth">    0.16    0.16</time>
   <time name="total">    2.88    2.89</time>
   <dipole>
    <v name="dipole">      0.00000000       0.00000000       0.00394866 </v>
    <i name="Tr[quadrupol]">   -495.75747475 </i>
    <i name="Echarged">      0.00000000 </i>
    <i name="Edipol_quadrupol">      0.00000000 </i>
    <i name="Eion">      0.00000000 </i>
   </dipole>
   <energy>
    <i name="e_fr_energy">   -128.56101917 </i>
    <i name="e_wo_entrp">   -128.53199939 </i>
    <i name="e_0_energy">   -128.54650928 </i>
   </energy>
  </scstep>
  <scstep>
   <time name="diag">    0.66    0.66</time>
   <time name="diis">    1.39    1.39</time>
   <time name="orth">    0.16    0.16</time>
   <time name="total">    2.90    2.91</time>
   <dipole>
    <v name="dipole">      0.00000000       0.00000000       0.00346199 </v>
    <i name="Tr[quadrupol]">   -495.77036020 </i>
    <i name="Echarged">      0.00000000 </i>
    <i name="Edipol_quadrupol">      0.00000000 </i>
    <i name="Eion">      0.00000000 </i>
   </dipole>
   <energy>
    <i name="e_fr_energy">   -128.56239831 </i>
    <i name="e_wo_entrp">   -128.53346348 </i>
    <i name="e_0_energy">   -128.54793089 </i>
   </energy>
  </scstep>
  <scstep>
   <time name="diag">    0.66    0.66</time>
   <time name="diis">    1.78    1.78</time>
   <time name="orth">    0.16    0.16</time>
   <time name="total">    3.29    3.29</time>
   <dipole>
    <v name="dipole">      0.00000000       0.00000000       0.00148219 </v>
    <i name="Tr[quadrupol]">   -495.68822045 </i>
    <i name="Echarged">      0.00000000 </i>
    <i name="Edipol_quadrupol">      0.00000000 </i>
    <i name="Eion">      0.00000000 </i>
   </dipole>
   <energy>
    <i name="e_fr_energy">   -128.56403444 </i>
    <i name="e_wo_entrp">   -128.53559537 </i>
    <i name="e_0_energy">   -128.54981490 </i>
   </energy>
  </scstep>
  <scstep>
   <time name="diag">    0.66    0.66</time>
   <time name="diis">    1.35    1.36</time>
   <time name="orth">    0.16    0.16</time>
   <time name="total">    2.86    2.87</time>
   <dipole>
    <v name="dipole">      0.00000000       0.00000000       0.00162544 </v>
    <i name="Tr[quadrupol]">   -495.72540206 </i>
    <i name="Echarged">      0.00000000 </i>
    <i name="Edipol_quadrupol">      0.00000000 </i>
    <i name="Eion">      0.00000000 </i>
   </dipole>
   <energy>
    <i name="e_fr_energy">   -128.56173166 </i>
    <i name="e_wo_entrp">   -128.53307858 </i>
    <i name="e_0_energy">   -128.54740512 </i>
   </energy>
  </scstep>
  <scstep>
   <time name="diag">    0.66    0.66</time>
   <time name="diis">    1.30    1.31</time>
   <time name="orth">    0.16    0.16</time>
   <time name="total">    2.81    2.81</time>
   <dipole>
    <v name="dipole">      0.00000000       0.00000000       0.00337260 </v>
    <i name="Tr[quadrupol]">   -495.69635400 </i>
    <i name="Echarged">      0.00000000 </i>
    <i name="Edipol_quadrupol">      0.00000000 </i>
    <i name="Eion">      0.00000000 </i>
   </dipole>
   <energy>
    <i name="e_fr_energy">   -128.55779535 </i>
    <i name="e_wo_entrp">   -128.52890117 </i>
    <i name="e_0_energy">   -128.54334826 </i>
   </energy>
  </scstep>
  <scstep>
   <time name="diag">    0.66    0.66</time>
   <time name="diis">    1.41    1.41</time>
   <time name="orth">    0.16    0.16</time>
   <time name="total">    2.91    2.92</time>
   <dipole>
    <v name="dipole">      0.00000000       0.00000000       0.00549325 </v>
    <i name="Tr[quadrupol]">   -495.72588491 </i>
    <i name="Echarged">      0.00000000 </i>
    <i name="Edipol_quadrupol">      0.00000000 </i>
    <i name="Eion">      0.00000000 </i>
   </dipole>
   <energy>
    <i name="e_fr_energy">   -128.55669419 </i>
    <i name="e_wo_entrp">   -128.52826629 </i>
    <i name="e_0_energy">   -128.54248024 </i>
   </energy>
  </scstep>
  <scstep>
   <time name="diag">    0.66    0.66</time>
   <time name="diis">    1.43    1.43</time>
   <time name="orth">    0.16    0.16</time>
   <time name="total">    2.94    2.95</time>
   <dipole>
    <v name="dipole">      0.00000000       0.00000000       0.00494236 </v>
    <i name="Tr[quadrupol]">   -495.72137956 </i>
    <i name="Echarged">      0.00000000 </i>
    <i name="Edipol_quadrupol">      0.00000000 </i>
    <i name="Eion">      0.00000000 </i>
   </dipole>
   <energy>
    <i name="e_fr_energy">   -128.55919437 </i>
    <i name="e_wo_entrp">   -128.53061568 </i>
    <i name="e_0_energy">   -128.54490503 </i>
   </energy>
  </scstep>
  <scstep>
   <time name="diag">    0.66    0.66</time>
   <time name="diis">    1.83    1.83</time>
   <time name="orth">    0.16    0.16</time>
   <time name="total">    3.34    3.34</time>
   <dipole>
    <v name="dipole">      0.00000000       0.00000000       0.00959732 </v>
    <i name="Tr[quadrupol]">   -495.73944120 </i>
    <i name="Echarged">      0.00000000 </i>
    <i name="Edipol_quadrupol">      0.00000000 </i>
    <i name="Eion">      0.00000000 </i>
   </dipole>
   <energy>
    <i name="e_fr_energy">   -128.55671356 </i>
    <i name="e_wo_entrp">   -128.52998254 </i>
    <i name="e_0_energy">   -128.54334805 </i>
   </energy>
  </scstep>
  <scstep>
   <time name="diag">    0.66    0.66</time>
   <time name="diis">    1.54    1.54</time>
   <time name="orth">    0.16    0.16</time>
   <time name="total">    3.05    3.05</time>
   <dipole>
    <v name="dipole">      0.00000000       0.00000000       0.00872023 </v>
    <i name="Tr[quadrupol]">   -495.73225621 </i>
    <i name="Echarged">      0.00000000 </i>
    <i name="Edipol_quadrupol">      0.00000000 </i>
    <i name="Eion">      0.00000000 </i>
   </dipole>
   <energy>
    <i name="e_fr_energy">   -128.55831529 </i>
    <i name="e_wo_entrp">   -128.53095343 </i>
    <i name="e_0_energy">   -128.54463436 </i>
   </energy>
  </scstep>
  <scstep>
   <time name="diag">    0.66    0.66</time>
   <time name="diis">    1.30    1.30</time>
   <time name="orth">    0.16    0.16</time>
   <time name="total">    2.80    2.81</time>
   <dipole>
    <v name="dipole">      0.00000000       0.00000000       0.00856398 </v>
    <i name="Tr[quadrupol]">   -495.73910619 </i>
    <i name="Echarged">      0.00000000 </i>
    <i name="Edipol_quadrupol">      0.00000000 </i>
    <i name="Eion">      0.00000000 </i>
   </dipole>
   <energy>
    <i name="e_fr_energy">   -128.55804125 </i>
    <i name="e_wo_entrp">   -128.53058686 </i>
    <i name="e_0_energy">   -128.54431406 </i>
   </energy>
  </scstep>
  <scstep>
   <time name="diag">    0.65    0.66</time>
   <time name="diis">    1.16    1.17</time>
   <time name="orth">    0.16    0.16</time>
   <time name="total">    2.67    2.67</time>
   <dipole>
    <v name="dipole">      0.00000000       0.00000000       0.00806487 </v>
    <i name="Tr[quadrupol]">   -495.74420312 </i>
    <i name="Echarged">      0.00000000 </i>
    <i name="Edipol_quadrupol">      0.00000000 </i>
    <i name="Eion">      0.00000000 </i>
   </dipole>
   <energy>
    <i name="e_fr_energy">   -128.55827263 </i>
    <i name="e_wo_entrp">   -128.53049436 </i>
    <i name="e_0_energy">   -128.54438349 </i>
   </energy>
  </scstep>
  <scstep>
   <time name="diag">    0.66    0.66</time>
   <time name="diis">    1.27    1.27</time>
   <time name="orth">    0.16    0.16</time>
   <time name="total">    2.78    2.79</time>
   <dipole>
    <v name="dipole">      0.00000000       0.00000000       0.00808057 </v>
    <i name="Tr[quadrupol]">   -495.74435551 </i>
    <i name="Echarged">      0.00000000 </i>
    <i name="Edipol_quadrupol">      0.00000000 </i>
    <i name="Eion">      0.00000000 </i>
   </dipole>
   <energy>
    <i name="e_fr_energy">   -128.55795718 </i>
    <i name="e_wo_entrp">   -128.53016529 </i>
    <i name="e_0_energy">   -128.54406123 </i>
   </energy>
  </scstep>
  <scstep>
   <time name="diag">    0.66    0.66</time>
   <time name="diis">    1.65    1.65</time>
   <time name="orth">    0.16    0.16</time>
   <time name="total">    3.16    3.16</time>
   <dipole>
    <v name="dipole">      0.00000000       0.00000000       0.00706675 </v>
    <i name="Tr[quadrupol]">   -495.76219114 </i>
    <i name="Echarged">      0.00000000 </i>
    <i name="Edipol_quadrupol">      0.00000000 </i>
    <i name="Eion">      0.00000000 </i>
   </dipole>
   <energy>
    <i name="e_fr_energy">   -128.55730562 </i>
    <i name="e_wo_entrp">   -128.52837355 </i>
    <i name="e_0_energy">   -128.54283959 </i>
   </energy>
  </scstep>
  <scstep>
   <time name="diag">    0.66    0.66</time>
   <time name="diis">    1.38    1.38</time>
   <time name="orth">    0.16    0.16</time>
   <time name="total">    2.88    2.89</time>
   <dipole>
    <v name="dipole">      0.00000000       0.00000000       0.00611540 </v>
    <i name="Tr[quadrupol]">   -495.73962131 </i>
    <i name="Echarged">      0.00000000 </i>
    <i name="Edipol_quadrupol">      0.00000000 </i>
    <i name="Eion">      0.00000000 </i>
   </dipole>
   <energy>
    <i name="e_fr_energy">   -128.55689337 </i>
    <i name="e_wo_entrp">   -128.52768507 </i>
    <i name="e_0_energy">   -128.54228922 </i>
   </energy>
  </scstep>
  <scstep>
   <time name="diag">    0.66    0.66</time>
   <time name="diis">    1.34    1.34</time>
   <time name="orth">    0.16    0.16</time>
   <time name="total">    2.84    2.85</time>
   <dipole>
    <v name="dipole">      0.00000000       0.00000000       0.00660258 </v>
    <i name="Tr[quadrupol]">   -495.73342105 </i>
    <i name="Echarged">      0.00000000 </i>
    <i name="Edipol_quadrupol">      0.00000000 </i>
    <i name="Eion">      0.00000000 </i>
   </dipole>
   <energy>
    <i name="e_fr_energy">   -128.55581211 </i>
    <i name="e_wo_entrp">   -128.52688184 </i>
    <i name="e_0_energy">   -128.54134698 </i>
   </energy>
  </scstep>
  <scstep>
   <time name="diag">    0.66    0.66</time>
   <time name="diis">    1.22    1.22</time>
   <time name="orth">    0.16    0.16</time>
   <time name="total">    2.73    2.73</time>
   <dipole>
    <v name="dipole">      0.00000000       0.00000000       0.00726037 </v>
    <i name="Tr[quadrupol]">   -495.74187069 </i>
    <i name="Echarged">      0.00000000 </i>
    <i name="Edipol_quadrupol">      0.00000000 </i>
    <i name="Eion">      0.00000000 </i>
   </dipole>
   <energy>
    <i name="e_fr_energy">   -128.55475213 </i>
    <i name="e_wo_entrp">   -128.52625944 </i>
    <i name="e_0_energy">   -128.54050579 </i>
   </energy>
  </scstep>
  <scstep>
   <time name="diag">    0.66    0.66</time>
   <time name="diis">    1.27    1.27</time>
   <time name="orth">    0.16    0.16</time>
   <time name="total">    2.78    2.78</time>
   <dipole>
    <v name="dipole">      0.00000000       0.00000000       0.00701909 </v>
    <i name="Tr[quadrupol]">   -495.73974670 </i>
    <i name="Echarged">      0.00000000 </i>
    <i name="Edipol_quadrupol">      0.00000000 </i>
    <i name="Eion">      0.00000000 </i>
   </dipole>
   <energy>
    <i name="e_fr_energy">   -128.55509310 </i>
    <i name="e_wo_entrp">   -128.52646502 </i>
    <i name="e_0_energy">   -128.54077906 </i>
   </energy>
  </scstep>
  <scstep>
   <time name="diag">    0.66    0.66</time>
   <time name="diis">    1.97    1.97</time>
   <time name="orth">    0.16    0.16</time>
   <time name="total">    3.47    3.48</time>
   <dipole>
    <v name="dipole">      0.00000000       0.00000000       0.00015076 </v>
    <i name="Tr[quadrupol]">   -495.79816688 </i>
    <i name="Echarged">      0.00000000 </i>
    <i name="Edipol_quadrupol">      0.00000000 </i>
    <i name="Eion">      0.00000000 </i>
   </dipole>
   <energy>
    <i name="e_fr_energy">   -128.59005576 </i>
    <i name="e_wo_entrp">   -128.56485358 </i>
    <i name="e_0_energy">   -128.57745467 </i>
   </energy>
  </scstep>
  <scstep>
[...]
       <r>     0.0121     1.4124    98.9980 </r>
       <r>     0.2539     0.0082    99.0000 </r>
       <r>     0.4957     0.0000    99.0000 </r>
       <r>     0.7374     0.0000    99.0000 </r>
       <r>     0.9792     0.0000    99.0000 </r>
       <r>     1.2210     0.0000    99.0000 </r>
       <r>     1.4627     0.0000    99.0000 </r>
       <r>     1.7045     0.0000    99.0000 </r>
       <r>     1.9463     0.0000    99.0000 </r>
       <r>     2.1880     0.0000    99.0000 </r>
       <r>     2.4298     0.1599    99.0387 </r>
       <r>     2.6716     0.8742    99.2500 </r>
       <r>     2.9133     1.6592    99.6511 </r>
       <r>     3.1551     1.8638   100.1017 </r>
       <r>     3.3968     0.6133   100.2500 </r>
       <r>     3.6386     0.0007   100.2502 </r>
       <r>     3.8804     1.1673   100.5324 </r>
       <r>     4.1221     1.0082   100.7761 </r>
       <r>     4.3639     1.9679   101.2519 </r>
       <r>     4.6057     2.0908   101.7574 </r>
       <r>     4.8474     3.7827   102.6719 </r>
       <r>     5.0892     6.4540   104.2322 </r>
       <r>     5.3310     2.4188   104.8170 </r>
       <r>     5.5727     4.6515   105.9416 </r>
       <r>     5.8145     7.2350   107.6907 </r>
       <r>     6.0563     4.7441   108.8377 </r>
       <r>     6.2980     5.9591   110.2784 </r>
       <r>     6.5398     8.8372   112.4149 </r>
       <r>     6.7815     6.5284   113.9933 </r>
       <r>     7.0233     5.5549   115.3362 </r>
       <r>     7.2651     1.9281   115.8024 </r>
       <r>     7.5068     0.8174   116.0000 </r>
       <r>     7.7486     0.0000   116.0000 </r>
       <r>     7.9904     0.0000   116.0000 </r>
       <r>     8.2321     0.0000   116.0000 </r>
       <r>     8.4739     0.0000   116.0000 </r>
       <r>     8.7157     0.0000   116.0000 </r>
       <r>     8.9574     0.0000   116.0000 </r>
       <r>     9.1992     0.0000   116.0000 </r>
       <r>     9.4409     0.0000   116.0000 </r>
       <r>     9.6827     0.0000   116.0000 </r>
       <r>     9.9245     0.0000   116.0000 </r>
       <r>    10.1662     0.0000   116.0000 </r>
       <r>    10.4080     0.0000   116.0000 </r>
       <r>    10.6498     0.0000   116.0000 </r>
      </set>
      <set comment="spin 2">
       <r>   -61.8795     0.0000     0.0000 </r>
       <r>   -61.6377     0.0000     0.0000 </r>
       <r>   -61.3960     0.0000     0.0000 </r>
       <r>   -61.1542     0.0000     0.0000 </r>
       <r>   -60.9124     0.0000     0.0000 </r>
       <r>   -60.6707     0.0000     0.0000 </r>
       <r>   -60.4289     0.0000     0.0000 </r>
       <r>   -60.1871     0.0000     0.0000 </r>
       <r>   -59.9454     0.0000     0.0000 </r>
       <r>   -59.7036     0.0000     0.0000 </r>
       <r>   -59.4618     0.0000     0.0000 </r>
       <r>   -59.2201     0.0000     0.0000 </r>
       <r>   -58.9783     0.0000     0.0000 </r>
       <r>   -58.7365     0.0000     0.0000 </r>
       <r>   -58.4948     0.0000     0.0000 </r>
       <r>   -58.2530     0.0000     0.0000 </r>
       <r>   -58.0113     0.0000     0.0000 </r>
       <r>   -57.7695     0.0000     0.0000 </r>
       <r>   -57.5277     0.0000     0.0000 </r>
       <r>   -57.2860     0.0000     0.0000 </r>
       <r>   -57.0442     0.0000     0.0000 </r>
       <r>   -56.8024     0.0000     0.0000 </r>
       <r>   -56.5607     0.0000     0.0000 </r>
       <r>   -56.3189     0.0000     0.0000 </r>
       <r>   -56.0771     0.0000     0.0000 </r>
       <r>   -55.8354     0.0000     0.0000 </r>
       <r>   -55.5936     0.0000     0.0000 </r>
       <r>   -55.3518     0.0000     0.0000 </r>
       <r>   -55.1101     0.0000     0.0000 </r>
       <r>   -54.8683     0.0000     0.0000 </r>
       <r>   -54.6266     0.0000     0.0000 </r>
       <r>   -54.3848     0.0000     0.0000 </r>
       <r>   -54.1430     0.1781     0.0431 </r>
       <r>   -53.9013    34.6230     8.4137 </r>
       <r>   -53.6595    14.7995    11.9917 </r>
       <r>   -53.4177     0.0345    12.0000 </r>
       <r>   -53.1760     0.0000    12.0000 </r>
       <r>   -52.9342     0.0000    12.0000 </r>
       <r>   -52.6924     0.0000    12.0000 </r>
       <r>   -52.4507     0.0000    12.0000 </r>
       <r>   -52.2089     0.0000    12.0000 </r>
       <r>   -51.9672     0.0000    12.0000 </r>
       <r>   -51.7254     0.0000    12.0000 </r>
       <r>   -51.4836     0.0000    12.0000 </r>
       <r>   -51.2419     0.0000    12.0000 </r>
       <r>   -51.0001     0.0000    12.0000 </r>
       <r>   -50.7583     0.0000    12.0000 </r>
       <r>   -50.5166     0.0000    12.0000 </r>
       <r>   -50.2748     0.0000    12.0000 </r>
       <r>   -50.0330     0.0000    12.0000 </r>
       <r>   -49.7913     0.0000    12.0000 </r>
       <r>   -49.5495     0.0000    12.0000 </r>
       <r>   -49.3077     0.0000    12.0000 </r>
       <r>   -49.0660     0.0000    12.0000 </r>
       <r>   -48.8242     0.0000    12.0000 </r>
       <r>   -48.5825     0.0000    12.0000 </r>
       <r>   -48.3407     0.0000    12.0000 </r>
       <r>   -48.0989     0.0000    12.0000 </r>
       <r>   -47.8572     0.0000    12.0000 </r>
       <r>   -47.6154     0.0000    12.0000 </r>
       <r>   -47.3736     0.0000    12.0000 </r>
       <r>   -47.1319     0.0000    12.0000 </r>
       <r>   -46.8901     0.0000    12.0000 </r>
       <r>   -46.6483     0.0000    12.0000 </r>
       <r>   -46.4066     0.0000    12.0000 </r>
       <r>   -46.1648     0.0000    12.0000 </r>
       <r>   -45.9230     0.0000    12.0000 </r>
       <r>   -45.6813     0.0000    12.0000 </r>
       <r>   -45.4395     0.0000    12.0000 </r>
       <r>   -45.1978     0.0000    12.0000 </r>
       <r>   -44.9560     0.0000    12.0000 </r>
       <r>   -44.7142     0.0000    12.0000 </r>
       <r>   -44.4725     0.0000    12.0000 </r>
       <r>   -44.2307     0.0000    12.0000 </r>
       <r>   -43.9889     0.0000    12.0000 </r>
       <r>   -43.7472     0.0000    12.0000 </r>
       <r>   -43.5054     0.0000    12.0000 </r>
       <r>   -43.2636     0.0000    12.0000 </r>
       <r>   -43.0219     0.0000    12.0000 </r>
       <r>   -42.7801     0.0000    12.0000 </r>
       <r>   -42.5383     0.0000    12.0000 </r>
       <r>   -42.2966     0.0000    12.0000 </r>
       <r>   -42.0548     0.0000    12.0000 </r>
       <r>   -41.8131     0.0000    12.0000 </r>
       <r>   -41.5713     0.0000    12.0000 </r>
       <r>   -41.3295     0.0000    12.0000 </r>
       <r>   -41.0878     0.0000    12.0000 </r>
       <r>   -40.8460     0.0000    12.0000 </r>
       <r>   -40.6042     0.0000    12.0000 </r>
       <r>   -40.3625     0.0000    12.0000 </r>
       <r>   -40.1207     0.0000    12.0000 </r>
       <r>   -39.8789     0.0000    12.0000 </r>
       <r>   -39.6372     0.0000    12.0000 </r>
       <r>   -39.3954     0.0000    12.0000 </r>
       <r>   -39.1536     0.0000    12.0000 </r>
       <r>   -38.9119     0.0000    12.0000 </r>
       <r>   -38.6701     0.0000    12.0000 </r>
       <r>   -38.4284     0.0000    12.0000 </r>
       <r>   -38.1866     0.0000    12.0000 </r>
       <r>   -37.9448     0.0000    12.0000 </r>
       <r>   -37.7031     0.0000    12.0000 </r>
       <r>   -37.4613     0.0000    12.0000 </r>
       <r>   -37.2195     0.0000    12.0000 </r>
       <r>   -36.9778     0.0000    12.0000 </r>
       <r>   -36.7360     0.0000    12.0000 </r>
       <r>   -36.4942     0.0000    12.0000 </r>
       <r>   -36.2525     0.0000    12.0000 </r>
       <r>   -36.0107     0.0000    12.0000 </r>
       <r>   -35.7690     0.0000    12.0000 </r>
       <r>   -35.5272     0.0000    12.0000 </r>
       <r>   -35.2854     0.0000    12.0000 </r>
       <r>   -35.0437     0.4784    12.1157 </r>
       <r>   -34.8019     3.6579    13.0000 </r>
       <r>   -34.5601     0.0000    13.0000 </r>
       <r>   -34.3184     3.9064    13.9444 </r>
       <r>   -34.0766     0.2298    14.0000 </r>
       <r>   -33.8348     3.9467    14.9542 </r>
       <r>   -33.5931     2.8622    15.6461 </r>
       <r>   -33.3513     1.4637    16.0000 </r>
       <r>   -33.1095     0.0000    16.0000 </r>
       <r>   -32.8678     0.0000    16.0000 </r>
       <r>   -32.6260     0.0000    16.0000 </r>
       <r>   -32.3843     0.0000    16.0000 </r>
       <r>   -32.1425     0.0000    16.0000 </r>
       <r>   -31.9007     0.0000    16.0000 </r>
       <r>   -31.6590     0.0000    16.0000 </r>
       <r>   -31.4172     0.0000    16.0000 </r>
       <r>   -31.1754     0.0000    16.0000 </r>
       <r>   -30.9337     0.0000    16.0000 </r>
       <r>   -30.6919     0.0000    16.0000 </r>
       <r>   -30.4501     0.0000    16.0000 </r>
       <r>   -30.2084     0.0000    16.0000 </r>
       <r>   -29.9666     0.0000    16.0000 </r>
       <r>   -29.7248     0.0000    16.0000 </r>
       <r>   -29.4831     0.0000    16.0000 </r>
       <r>   -29.2413     0.0000    16.0000 </r>
       <r>   -28.9996     0.0000    16.0000 </r>
       <r>   -28.7578     0.0000    16.0000 </r>
       <r>   -28.5160     0.0000    16.0000 </r>
       <r>   -28.2743     0.0000    16.0000 </r>
       <r>   -28.0325     0.0000    16.0000 </r>
       <r>   -27.7907     0.0000    16.0000 </r>
       <r>   -27.5490     0.0000    16.0000 </r>
       <r>   -27.3072     0.0000    16.0000 </r>
       <r>   -27.0654     0.0000    16.0000 </r>
       <r>   -26.8237     0.0000    16.0000 </r>
       <r>   -26.5819     0.0000    16.0000 </r>
       <r>   -26.3401     0.0000    16.0000 </r>
       <r>   -26.0984     0.0000    16.0000 </r>
       <r>   -25.8566     0.0000    16.0000 </r>
       <r>   -25.6149     0.0000    16.0000 </r>
       <r>   -25.3731     0.0000    16.0000 </r>
       <r>   -25.1313     0.0000    16.0000 </r>
       <r>   -24.8896     0.0000    16.0000 </r>
       <r>   -24.6478     0.0000    16.0000 </r>
       <r>   -24.4060     0.0000    16.0000 </r>
       <r>   -24.1643     0.0000    16.0000 </r>
       <r>   -23.9225     0.0000    16.0000 </r>
       <r>   -23.6807     0.0000    16.0000 </r>
       <r>   -23.4390     0.0000    16.0000 </r>
       <r>   -23.1972     0.6387    16.1544 </r>
       <r>   -22.9554     3.4975    17.0000 </r>
       <r>   -22.7137     0.0000    17.0000 </r>
       <r>   -22.4719     0.0000    17.0000 </r>
       <r>   -22.2302     0.0000    17.0000 </r>
       <r>   -21.9884     0.0000    17.0000 </r>
       <r>   -21.7466     0.0000    17.0000 </r>
       <r>   -21.5049     0.0000    17.0000 </r>
       <r>   -21.2631     0.0000    17.0000 </r>
       <r>   -21.0213     0.0000    17.0000 </r>
       <r>   -20.7796     0.0000    17.0000 </r>
       <r>   -20.5378     0.0000    17.0000 </r>
       <r>   -20.2960     0.0000    17.0000 </r>
       <r>   -20.0543     0.0000    17.0000 </r>
       <r>   -19.8125     0.0000    17.0000 </r>
       <r>   -19.5708     0.0000    17.0000 </r>
       <r>   -19.3290     0.0000    17.0000 </r>
       <r>   -19.0872     0.6283    17.1519 </r>
       <r>   -18.8455     4.7226    18.2936 </r>
       <r>   -18.6037     4.6133    19.4090 </r>
       <r>   -18.3619     3.3456    20.2178 </r>
       <r>   -18.1202     7.4779    22.0257 </r>
       <r>   -17.8784     6.1798    23.5198 </r>
       <r>   -17.6366     8.9018    25.6719 </r>
       <r>   -17.3949     6.1113    27.1494 </r>
       <r>   -17.1531     3.7735    28.0617 </r>
       <r>   -16.9113     4.4793    29.1447 </r>
       <r>   -16.6696     4.8145    30.3086 </r>
       <r>   -16.4278     4.1581    31.3139 </r>
       <r>   -16.1861     8.7632    33.4325 </r>
       <r>   -15.9443     4.3231    34.4777 </r>
       <r>   -15.7025     8.4699    36.5254 </r>
       <r>   -15.4608    11.7504    39.3663 </r>
       <r>   -15.2190     6.7572    40.9999 </r>
       <r>   -14.9772     0.0003    41.0000 </r>
       <r>   -14.7355     0.0000    41.0000 </r>
       <r>   -14.4937     0.0000    41.0000 </r>
       <r>   -14.2519     0.0000    41.0000 </r>
       <r>   -14.0102     0.0000    41.0000 </r>
       <r>   -13.7684     0.0000    41.0000 </r>
       <r>   -13.5266     0.0000    41.0000 </r>
       <r>   -13.2849     0.0000    41.0000 </r>
       <r>   -13.0431     0.0000    41.0000 </r>
       <r>   -12.8014     0.0000    41.0000 </r>
       <r>   -12.5596     0.0000    41.0000 </r>
       <r>   -12.3178     0.0000    41.0000 </r>
       <r>   -12.0761     0.0000    41.0000 </r>
       <r>   -11.8343     0.0000    41.0000 </r>
       <r>   -11.5925     0.0000    41.0000 </r>
       <r>   -11.3508     0.0000    41.0000 </r>
       <r>   -11.1090     0.0000    41.0000 </r>
       <r>   -10.8672     0.0000    41.0000 </r>
       <r>   -10.6255     0.0000    41.0000 </r>
       <r>   -10.3837     0.0000    41.0000 </r>
       <r>   -10.1419     0.0000    41.0000 </r>
       <r>    -9.9002     0.0000    41.0000 </r>
       <r>    -9.6584     0.0000    41.0000 </r>
       <r>    -9.4167     0.0000    41.0000 </r>
       <r>    -9.1749     0.0000    41.0000 </r>
       <r>    -8.9331     0.0000    41.0000 </r>
       <r>    -8.6914     0.0000    41.0000 </r>
       <r>    -8.4496     0.0000    41.0000 </r>
       <r>    -8.2078     0.0000    41.0000 </r>
       <r>    -7.9661     0.0000    41.0000 </r>
       <r>    -7.7243     0.0000    41.0000 </r>
       <r>    -7.4825     0.4960    41.1199 </r>
       <r>    -7.2408     3.4954    41.9650 </r>
       <r>    -6.9990     0.8627    42.1736 </r>
       <r>    -6.7573     0.3619    42.2611 </r>
       <r>    -6.5155     1.7686    42.6886 </r>
       <r>    -6.2737     3.4154    43.5144 </r>
       <r>    -6.0320     4.1904    44.5274 </r>
       <r>    -5.7902     6.9623    46.2107 </r>
       <r>    -5.5484     5.3319    47.4997 </r>
       <r>    -5.3067     2.7342    48.1608 </r>
       <r>    -5.0649    12.1892    51.1077 </r>
       <r>    -4.8231    13.2325    54.3068 </r>
       <r>    -4.5814     8.3708    56.3306 </r>
       <r>    -4.3396     4.6126    57.4457 </r>
       <r>    -4.0978     5.4731    58.7689 </r>
       <r>    -3.8561     9.3683    61.0338 </r>
       <r>    -3.6143     4.6938    62.1686 </r>
       <r>    -3.3726     6.3308    63.6992 </r>
       <r>    -3.1308     5.9230    65.1312 </r>
       <r>    -2.8890     3.9825    66.0940 </r>
       <r>    -2.6473     5.7213    67.4772 </r>
       <r>    -2.4055    12.6066    70.5250 </r>
       <r>    -2.1637     9.0908    72.7228 </r>
       <r>    -1.9220     5.5132    74.0557 </r>
       <r>    -1.6802     3.8189    74.9790 </r>
       <r>    -1.4384     8.8914    77.1286 </r>
       <r>    -1.1967     6.7042    78.7495 </r>
       <r>    -0.9549     0.1550    78.7870 </r>
       <r>    -0.7131     0.8812    79.0000 </r>
       <r>    -0.4714     0.0000    79.0000 </r>
       <r>    -0.2296     0.0000    79.0000 </r>
       <r>     0.0121     0.0000    79.0000 </r>
       <r>     0.2539     2.2075    79.5337 </r>
       <r>     0.4957     6.4600    81.0955 </r>
       <r>     0.7374     6.8545    82.7527 </r>
       <r>     0.9792     9.5848    85.0699 </r>
       <r>     1.2210    15.0207    88.7014 </r>
       <r>     1.4627    14.7518    92.2679 </r>
       <r>     1.7045    10.6781    94.8494 </r>
       <r>     1.9463     3.2382    95.6323 </r>
       <r>     2.1880     1.5717    96.0123 </r>
       <r>     2.4298     3.0651    96.7533 </r>
       <r>     2.6716     2.0544    97.2500 </r>
       <r>     2.9133     0.0136    97.2533 </r>
       <r>     3.1551     2.7571    97.9198 </r>
       <r>     3.3968     3.5943    98.7888 </r>
       <r>     3.6386     2.5249    99.3993 </r>
       <r>     3.8804     3.1334   100.1568 </r>
       <r>     4.1221     1.4200   100.5001 </r>
       <r>     4.3639     2.2282   101.0388 </r>
       <r>     4.6057     1.9185   101.5026 </r>
       <r>     4.8474     3.2042   102.2773 </r>
       <r>     5.0892     2.3395   102.8429 </r>
       <r>     5.3310     5.4396   104.1580 </r>
       <r>     5.5727     3.9759   105.1192 </r>
       <r>     5.8145     5.2299   106.3836 </r>
       <r>     6.0563     6.1474   107.8698 </r>
       <r>     6.2980     5.4487   109.1871 </r>
       <r>     6.5398     9.2298   111.4186 </r>
       <r>     6.7815     6.8075   113.0644 </r>
       <r>     7.0233     7.1618   114.7958 </r>
       <r>     7.2651     3.9340   115.7469 </r>
       <r>     7.5068     1.0467   116.0000 </r>
       <r>     7.7486     0.0000   116.0000 </r>
       <r>     7.9904     0.0000   116.0000 </r>
       <r>     8.2321     0.0000   116.0000 </r>
       <r>     8.4739     0.0000   116.0000 </r>
       <r>     8.7157     0.0000   116.0000 </r>
       <r>     8.9574     0.0000   116.0000 </r>
       <r>     9.1992     0.0000   116.0000 </r>
       <r>     9.4409     0.0000   116.0000 </r>
       <r>     9.6827     0.0000   116.0000 </r>
       <r>     9.9245     0.0000   116.0000 </r>
       <r>    10.1662     0.0000   116.0000 </r>
       <r>    10.4080     0.0000   116.0000 </r>
       <r>    10.6498     0.0000   116.0000 </r>
      </set>
     </set>
    </array>
   </total>
  </dos>
 </calculation>
 <structure name="finalpos" >
  <crystal>
   <varray name="basis" >
    <v>       3.88680817       0.00000000       0.00000000 </v>
    <v>       0.00000000       3.88680817       0.00000000 </v>
    <v>       0.00000000       0.00000000      30.54723268 </v>
   </varray>
   <i name="volume">    461.48552838 </i>
   <varray name="rec_basis" >
    <v>       0.25728051       0.00000000       0.00000000 </v>
    <v>       0.00000000       0.25728051       0.00000000 </v>
    <v>       0.00000000       0.00000000       0.03273619 </v>
   </varray>
  </crystal>
  <varray name="positions" >
   <v>       0.50000000       0.50000000       0.06361964 </v>
   <v>       0.50000000       0.50000000       0.19085893 </v>
   <v>       0.50000000       0.50000000       0.31750742 </v>
   <v>       0.50000000       0.50000000       0.45123163 </v>
   <v>       0.00000000       0.00000000       0.00000000 </v>
   <v>       0.00000000       0.00000000       0.12723929 </v>
   <v>       0.00000000       0.00000000       0.25512050 </v>
   <v>       0.00000000       0.00000000       0.38469980 </v>
   <v>       0.50000000       0.00000000       0.00000000 </v>
   <v>       0.50000000       0.00000000       0.12723929 </v>
   <v>       0.50000000       0.00000000       0.25708074 </v>
   <v>       0.50000000       0.00000000       0.39672330 </v>
   <v>       0.00000000       0.50000000       0.00000000 </v>
   <v>       0.00000000       0.50000000       0.12723929 </v>
   <v>       0.00000000       0.50000000       0.25708074 </v>
   <v>       0.00000000       0.50000000       0.39672330 </v>
   <v>       0.00000000       0.00000000       0.06361964 </v>
   <v>       0.00000000       0.00000000       0.19085893 </v>
   <v>       0.00000000       0.00000000       0.32284234 </v>
   <v>       0.00000000       0.00000000       0.46956470 </v>
   <v>       0.00000000       0.00000000       0.51621105 </v>
  </varray>
  <varray name="selective"  type="logical" >
   <v type="logical" >  F  F  F </v>
   <v type="logical" >  F  F  F </v>
   <v type="logical" >  T  T  T </v>
   <v type="logical" >  T  T  T </v>
   <v type="logical" >  F  F  F </v>
   <v type="logical" >  F  F  F </v>
   <v type="logical" >  T  T  T </v>
   <v type="logical" >  T  T  T </v>
   <v type="logical" >  F  F  F </v>
   <v type="logical" >  F  F  F </v>
   <v type="logical" >  T  T  T </v>
   <v type="logical" >  T  T  T </v>
   <v type="logical" >  F  F  F </v>
   <v type="logical" >  F  F  F </v>
   <v type="logical" >  T  T  T </v>
   <v type="logical" >  T  T  T </v>
   <v type="logical" >  F  F  F </v>
   <v type="logical" >  F  F  F </v>
   <v type="logical" >  T  T  T </v>
   <v type="logical" >  T  T  T </v>
   <v type="logical" >  T  T  T </v>
  </varray>
  <nose>
   <v>      -3.00000000       0.00000000       0.00010000       0.00010000 </v>
  </nose>
 </structure>
</modeling>
