unknown system                          
           1
     3.886808    0.000000    0.000000
     0.000000    3.886808    0.000000
     0.000000    0.000000   30.547233
   Sr   Fe   O 
   4   4  13
Direct configuration=     1
   0.50000000  0.50000000  0.06361964
   0.50000000  0.50000000  0.19085893
   0.50000000  0.50000000  0.31750742
   0.50000000  0.50000000  0.45123163
   0.00000000  0.00000000  0.00000000
   0.00000000  0.00000000  0.12723929
   0.00000000  0.00000000  0.25512050
   0.00000000  0.00000000  0.38469980
   0.50000000  0.00000000  0.00000000
   0.50000000  0.00000000  0.12723929
   0.50000000  0.00000000  0.25708074
   0.50000000  0.00000000  0.39672330
   0.00000000  0.50000000  0.00000000
   0.00000000  0.50000000  0.12723929
   0.00000000  0.50000000  0.25708074
   0.00000000  0.50000000  0.39672330
   0.00000000  0.00000000  0.06361964
   0.00000000  0.00000000  0.19085893
   0.00000000  0.00000000  0.32284234
   0.00000000  0.00000000  0.46956470
   0.00000000  0.00000000  0.51621105
Direct configuration=     2
   0.50000000  0.50000000  0.06361964
   0.50000000  0.50000000  0.19085893
   0.50000000  0.50000000  0.31763563
   0.50000000  0.50000000  0.45169306
   0.00000000  0.00000000  0.00000000
   0.00000000  0.00000000  0.12723929
   0.00000000  0.00000000  0.25521812
   0.00000000  0.00000000  0.38471026
   0.50000000  0.00000000  0.00000000
   0.50000000  0.00000000  0.12723929
   0.50000000  0.00000000  0.25707849
   0.50000000  0.00000000  0.39684197
   0.00000000  0.50000000  0.00000000
   0.00000000  0.50000000  0.12723929
   0.00000000  0.50000000  0.25707849
   0.00000000  0.50000000  0.39684197
   0.00000000  0.00000000  0.06361964
   0.00000000  0.00000000  0.19085893
   0.00000000  0.00000000  0.32292151
   0.00000000  0.00000000  0.46681024
   0.00000000  0.00000000  0.51786378
Direct configuration=     3
   0.50000000  0.50000000  0.06361964
   0.50000000  0.50000000  0.19085893
   0.50000000  0.50000000  0.31754772
   0.50000000  0.50000000  0.45137670
   0.00000000  0.00000000  0.00000000
   0.00000000  0.00000000  0.12723929
   0.00000000  0.00000000  0.25515119
   0.00000000  0.00000000  0.38470309
   0.50000000  0.00000000  0.00000000
   0.50000000  0.00000000  0.12723929
   0.50000000  0.00000000  0.25708003
   0.50000000  0.00000000  0.39676061
   0.00000000  0.50000000  0.00000000
   0.00000000  0.50000000  0.12723929
   0.00000000  0.50000000  0.25708003
   0.00000000  0.50000000  0.39676061
   0.00000000  0.00000000  0.06361964
   0.00000000  0.00000000  0.19085893
   0.00000000  0.00000000  0.32286723
   0.00000000  0.00000000  0.46869872
   0.00000000  0.00000000  0.51673065
Direct configuration=     4
   0.50000000  0.50000000  0.06361964
   0.50000000  0.50000000  0.19085893
   0.50000000  0.50000000  0.31752772
   0.50000000  0.50000000  0.45130470
   0.00000000  0.00000000  0.00000000
   0.00000000  0.00000000  0.12723929
   0.00000000  0.00000000  0.25513596
   0.00000000  0.00000000  0.38470146
   0.50000000  0.00000000  0.00000000
   0.50000000  0.00000000  0.12723929
   0.50000000  0.00000000  0.25708038
   0.50000000  0.00000000  0.39674209
   0.00000000  0.50000000  0.00000000
   0.00000000  0.50000000  0.12723929
   0.00000000  0.50000000  0.25708038
   0.00000000  0.50000000  0.39674209
   0.00000000  0.00000000  0.06361964
   0.00000000  0.00000000  0.19085893
   0.00000000  0.00000000  0.32285487
   0.00000000  0.00000000  0.46912852
   0.00000000  0.00000000  0.51647277
Direct configuration=     5
   0.50000000  0.50000000  0.06361964
   0.50000000  0.50000000  0.19085893
   0.50000000  0.50000000  0.31751757
   0.50000000  0.50000000  0.45126817
   0.00000000  0.00000000  0.00000000
   0.00000000  0.00000000  0.12723929
   0.00000000  0.00000000  0.25512823
   0.00000000  0.00000000  0.38470063
   0.50000000  0.00000000  0.00000000
   0.50000000  0.00000000  0.12723929
   0.50000000  0.00000000  0.25708056
   0.50000000  0.00000000  0.39673269
   0.00000000  0.50000000  0.00000000
   0.00000000  0.50000000  0.12723929
   0.00000000  0.50000000  0.25708056
   0.00000000  0.50000000  0.39673269
   0.00000000  0.00000000  0.06361964
   0.00000000  0.00000000  0.19085893
   0.00000000  0.00000000  0.32284860
   0.00000000  0.00000000  0.46934661
   0.00000000  0.00000000  0.51634191
Direct configuration=     6
   0.50000000  0.50000000  0.06361964
   0.50000000  0.50000000  0.19085893
   0.50000000  0.50000000  0.31751249
   0.50000000  0.50000000  0.45124990
   0.00000000  0.00000000  0.00000000
   0.00000000  0.00000000  0.12723929
   0.00000000  0.00000000  0.25512436
   0.00000000  0.00000000  0.38470022
   0.50000000  0.00000000  0.00000000
   0.50000000  0.00000000  0.12723929
   0.50000000  0.00000000  0.25708065
   0.50000000  0.00000000  0.39672800
   0.00000000  0.50000000  0.00000000
   0.00000000  0.50000000  0.12723929
   0.00000000  0.50000000  0.25708065
   0.00000000  0.50000000  0.39672800
   0.00000000  0.00000000  0.06361964
   0.00000000  0.00000000  0.19085893
   0.00000000  0.00000000  0.32284547
   0.00000000  0.00000000  0.46945566
   0.00000000  0.00000000  0.51627648
Direct configuration=     7
   0.50000000  0.50000000  0.06361964
   0.50000000  0.50000000  0.19085893
   0.50000000  0.50000000  0.31750995
   0.50000000  0.50000000  0.45124076
   0.00000000  0.00000000  0.00000000
   0.00000000  0.00000000  0.12723929
   0.00000000  0.00000000  0.25512243
   0.00000000  0.00000000  0.38470001
   0.50000000  0.00000000  0.00000000
   0.50000000  0.00000000  0.12723929
   0.50000000  0.00000000  0.25708069
   0.50000000  0.00000000  0.39672565
   0.00000000  0.50000000  0.00000000
   0.00000000  0.50000000  0.12723929
   0.00000000  0.50000000  0.25708069
   0.00000000  0.50000000  0.39672565
   0.00000000  0.00000000  0.06361964
   0.00000000  0.00000000  0.19085893
   0.00000000  0.00000000  0.32284390
   0.00000000  0.00000000  0.46951018
   0.00000000  0.00000000  0.51624376
Direct configuration=     8
   0.50000000  0.50000000  0.06361964
   0.50000000  0.50000000  0.19085893
   0.50000000  0.50000000  0.31750869
   0.50000000  0.50000000  0.45123620
   0.00000000  0.00000000  0.00000000
   0.00000000  0.00000000  0.12723929
   0.00000000  0.00000000  0.25512147
   0.00000000  0.00000000  0.38469991
   0.50000000  0.00000000  0.00000000
   0.50000000  0.00000000  0.12723929
   0.50000000  0.00000000  0.25708072
   0.50000000  0.00000000  0.39672447
   0.00000000  0.50000000  0.00000000
   0.00000000  0.50000000  0.12723929
   0.00000000  0.50000000  0.25708072
   0.00000000  0.50000000  0.39672447
   0.00000000  0.00000000  0.06361964
   0.00000000  0.00000000  0.19085893
   0.00000000  0.00000000  0.32284312
   0.00000000  0.00000000  0.46953744
   0.00000000  0.00000000  0.51622741
Direct configuration=     9
   0.50000000  0.50000000  0.06361964
   0.50000000  0.50000000  0.19085893
   0.50000000  0.50000000  0.31750805
   0.50000000  0.50000000  0.45123391
   0.00000000  0.00000000  0.00000000
   0.00000000  0.00000000  0.12723929
   0.00000000  0.00000000  0.25512098
   0.00000000  0.00000000  0.38469986
   0.50000000  0.00000000  0.00000000
   0.50000000  0.00000000  0.12723929
   0.50000000  0.00000000  0.25708073
   0.50000000  0.00000000  0.39672388
   0.00000000  0.50000000  0.00000000
   0.00000000  0.50000000  0.12723929
   0.00000000  0.50000000  0.25708073
   0.00000000  0.50000000  0.39672388
   0.00000000  0.00000000  0.06361964
   0.00000000  0.00000000  0.19085893
   0.00000000  0.00000000  0.32284273
   0.00000000  0.00000000  0.46955107
   0.00000000  0.00000000  0.51621923
Direct configuration=    10
   0.50000000  0.50000000  0.06361964
   0.50000000  0.50000000  0.19085893
   0.50000000  0.50000000  0.31750773
   0.50000000  0.50000000  0.45123277
   0.00000000  0.00000000  0.00000000
   0.00000000  0.00000000  0.12723929
   0.00000000  0.00000000  0.25512074
   0.00000000  0.00000000  0.38469983
   0.50000000  0.00000000  0.00000000
   0.50000000  0.00000000  0.12723929
   0.50000000  0.00000000  0.25708073
   0.50000000  0.00000000  0.39672359
   0.00000000  0.50000000  0.00000000
   0.00000000  0.50000000  0.12723929
   0.00000000  0.50000000  0.25708073
   0.00000000  0.50000000  0.39672359
   0.00000000  0.00000000  0.06361964
   0.00000000  0.00000000  0.19085893
   0.00000000  0.00000000  0.32284253
   0.00000000  0.00000000  0.46955789
   0.00000000  0.00000000  0.51621514
Direct configuration=    11
   0.50000000  0.50000000  0.06361964
   0.50000000  0.50000000  0.19085893
   0.50000000  0.50000000  0.31750757
   0.50000000  0.50000000  0.45123220
   0.00000000  0.00000000  0.00000000
   0.00000000  0.00000000  0.12723929
   0.00000000  0.00000000  0.25512062
   0.00000000  0.00000000  0.38469982
   0.50000000  0.00000000  0.00000000
   0.50000000  0.00000000  0.12723929
   0.50000000  0.00000000  0.25708073
   0.50000000  0.00000000  0.39672344
   0.00000000  0.50000000  0.00000000
   0.00000000  0.50000000  0.12723929
   0.00000000  0.50000000  0.25708073
   0.00000000  0.50000000  0.39672344
   0.00000000  0.00000000  0.06361964
   0.00000000  0.00000000  0.19085893
   0.00000000  0.00000000  0.32284243
   0.00000000  0.00000000  0.46956129
   0.00000000  0.00000000  0.51621309
Direct configuration=    12
   0.50000000  0.50000000  0.06361964
   0.50000000  0.50000000  0.19085893
   0.50000000  0.50000000  0.31750750
   0.50000000  0.50000000  0.45123192
   0.00000000  0.00000000  0.00000000
   0.00000000  0.00000000  0.12723929
   0.00000000  0.00000000  0.25512056
   0.00000000  0.00000000  0.38469981
   0.50000000  0.00000000  0.00000000
   0.50000000  0.00000000  0.12723929
   0.50000000  0.00000000  0.25708074
   0.50000000  0.00000000  0.39672337
   0.00000000  0.50000000  0.00000000
   0.00000000  0.50000000  0.12723929
   0.00000000  0.50000000  0.25708074
   0.00000000  0.50000000  0.39672337
   0.00000000  0.00000000  0.06361964
   0.00000000  0.00000000  0.19085893
   0.00000000  0.00000000  0.32284239
   0.00000000  0.00000000  0.46956300
   0.00000000  0.00000000  0.51621207
Direct configuration=    13
   0.50000000  0.50000000  0.06361964
   0.50000000  0.50000000  0.19085893
   0.50000000  0.50000000  0.31750746
   0.50000000  0.50000000  0.45123177
   0.00000000  0.00000000  0.00000000
   0.00000000  0.00000000  0.12723929
   0.00000000  0.00000000  0.25512053
   0.00000000  0.00000000  0.38469981
   0.50000000  0.00000000  0.00000000
   0.50000000  0.00000000  0.12723929
   0.50000000  0.00000000  0.25708074
   0.50000000  0.00000000  0.39672333
   0.00000000  0.50000000  0.00000000
   0.00000000  0.50000000  0.12723929
   0.00000000  0.50000000  0.25708074
   0.00000000  0.50000000  0.39672333
   0.00000000  0.00000000  0.06361964
   0.00000000  0.00000000  0.19085893
   0.00000000  0.00000000  0.32284236
   0.00000000  0.00000000  0.46956385
   0.00000000  0.00000000  0.51621156
Direct configuration=    14
   0.50000000  0.50000000  0.06361964
   0.50000000  0.50000000  0.19085893
   0.50000000  0.50000000  0.31750744
   0.50000000  0.50000000  0.45123170
   0.00000000  0.00000000  0.00000000
   0.00000000  0.00000000  0.12723929
   0.00000000  0.00000000  0.25512052
   0.00000000  0.00000000  0.38469981
   0.50000000  0.00000000  0.00000000
   0.50000000  0.00000000  0.12723929
   0.50000000  0.00000000  0.25708074
   0.50000000  0.00000000  0.39672332
   0.00000000  0.50000000  0.00000000
   0.00000000  0.50000000  0.12723929
   0.00000000  0.50000000  0.25708074
   0.00000000  0.50000000  0.39672332
   0.00000000  0.00000000  0.06361964
   0.00000000  0.00000000  0.19085893
   0.00000000  0.00000000  0.32284235
   0.00000000  0.00000000  0.46956428
   0.00000000  0.00000000  0.51621131
Direct configuration=    15
   0.50000000  0.50000000  0.06361964
   0.50000000  0.50000000  0.19085893
   0.50000000  0.50000000  0.31750743
   0.50000000  0.50000000  0.45123167
   0.00000000  0.00000000  0.00000000
   0.00000000  0.00000000  0.12723929
   0.00000000  0.00000000  0.25512051
   0.00000000  0.00000000  0.38469981
   0.50000000  0.00000000  0.00000000
   0.50000000  0.00000000  0.12723929
   0.50000000  0.00000000  0.25708074
   0.50000000  0.00000000  0.39672331
   0.00000000  0.50000000  0.00000000
   0.00000000  0.50000000  0.12723929
   0.00000000  0.50000000  0.25708074
   0.00000000  0.50000000  0.39672331
   0.00000000  0.00000000  0.06361964
   0.00000000  0.00000000  0.19085893
   0.00000000  0.00000000  0.32284234
   0.00000000  0.00000000  0.46956449
   0.00000000  0.00000000  0.51621118
Direct configuration=    16
   0.50000000  0.50000000  0.06361964
   0.50000000  0.50000000  0.19085893
   0.50000000  0.50000000  0.31750742
   0.50000000  0.50000000  0.45123165
   0.00000000  0.00000000  0.00000000
   0.00000000  0.00000000  0.12723929
   0.00000000  0.00000000  0.25512050
   0.00000000  0.00000000  0.38469980
   0.50000000  0.00000000  0.00000000
   0.50000000  0.00000000  0.12723929
   0.50000000  0.00000000  0.25708074
   0.50000000  0.00000000  0.39672330
   0.00000000  0.50000000  0.00000000
   0.00000000  0.50000000  0.12723929
   0.00000000  0.50000000  0.25708074
   0.00000000  0.50000000  0.39672330
   0.00000000  0.00000000  0.06361964
   0.00000000  0.00000000  0.19085893
   0.00000000  0.00000000  0.32284234
   0.00000000  0.00000000  0.46956460
   0.00000000  0.00000000  0.51621111
Direct configuration=    17
   0.50000000  0.50000000  0.06361964
   0.50000000  0.50000000  0.19085893
   0.50000000  0.50000000  0.31750742
   0.50000000  0.50000000  0.45123164
   0.00000000  0.00000000  0.00000000
   0.00000000  0.00000000  0.12723929
   0.00000000  0.00000000  0.25512050
   0.00000000  0.00000000  0.38469980
   0.50000000  0.00000000  0.00000000
   0.50000000  0.00000000  0.12723929
   0.50000000  0.00000000  0.25708074
   0.50000000  0.00000000  0.39672330
   0.00000000  0.50000000  0.00000000
   0.00000000  0.50000000  0.12723929
   0.00000000  0.50000000  0.25708074
   0.00000000  0.50000000  0.39672330
   0.00000000  0.00000000  0.06361964
   0.00000000  0.00000000  0.19085893
   0.00000000  0.00000000  0.32284234
   0.00000000  0.00000000  0.46956465
   0.00000000  0.00000000  0.51621108
Direct configuration=    18
   0.50000000  0.50000000  0.06361964
   0.50000000  0.50000000  0.19085893
   0.50000000  0.50000000  0.31750742
   0.50000000  0.50000000  0.45123164
   0.00000000  0.00000000  0.00000000
   0.00000000  0.00000000  0.12723929
   0.00000000  0.00000000  0.25512050
   0.00000000  0.00000000  0.38469980
   0.50000000  0.00000000  0.00000000
   0.50000000  0.00000000  0.12723929
   0.50000000  0.00000000  0.25708074
   0.50000000  0.00000000  0.39672330
   0.00000000  0.50000000  0.00000000
   0.00000000  0.50000000  0.12723929
   0.00000000  0.50000000  0.25708074
   0.00000000  0.50000000  0.39672330
   0.00000000  0.00000000  0.06361964
   0.00000000  0.00000000  0.19085893
   0.00000000  0.00000000  0.32284234
   0.00000000  0.00000000  0.46956468
   0.00000000  0.00000000  0.51621107
Direct configuration=    19
   0.50000000  0.50000000  0.06361964
   0.50000000  0.50000000  0.19085893
   0.50000000  0.50000000  0.31750742
   0.50000000  0.50000000  0.45123163
   0.00000000  0.00000000  0.00000000
   0.00000000  0.00000000  0.12723929
   0.00000000  0.00000000  0.25512050
   0.00000000  0.00000000  0.38469980
   0.50000000  0.00000000  0.00000000
   0.50000000  0.00000000  0.12723929
   0.50000000  0.00000000  0.25708074
   0.50000000  0.00000000  0.39672330
   0.00000000  0.50000000  0.00000000
   0.00000000  0.50000000  0.12723929
   0.00000000  0.50000000  0.25708074
   0.00000000  0.50000000  0.39672330
   0.00000000  0.00000000  0.06361964
   0.00000000  0.00000000  0.19085893
   0.00000000  0.00000000  0.32284234
   0.00000000  0.00000000  0.46956469
   0.00000000  0.00000000  0.51621106
Direct configuration=    20
   0.50000000  0.50000000  0.06361964
   0.50000000  0.50000000  0.19085893
   0.50000000  0.50000000  0.31750742
   0.50000000  0.50000000  0.45123163
   0.00000000  0.00000000  0.00000000
   0.00000000  0.00000000  0.12723929
   0.00000000  0.00000000  0.25512050
   0.00000000  0.00000000  0.38469980
   0.50000000  0.00000000  0.00000000
   0.50000000  0.00000000  0.12723929
   0.50000000  0.00000000  0.25708074
   0.50000000  0.00000000  0.39672330
   0.00000000  0.50000000  0.00000000
   0.00000000  0.50000000  0.12723929
   0.00000000  0.50000000  0.25708074
   0.00000000  0.50000000  0.39672330
   0.00000000  0.00000000  0.06361964
   0.00000000  0.00000000  0.19085893
   0.00000000  0.00000000  0.32284234
   0.00000000  0.00000000  0.46956470
   0.00000000  0.00000000  0.51621105
Direct configuration=    21
   0.50000000  0.50000000  0.06361964
   0.50000000  0.50000000  0.19085893
   0.50000000  0.50000000  0.31750742
   0.50000000  0.50000000  0.45123163
   0.00000000  0.00000000  0.00000000
   0.00000000  0.00000000  0.12723929
   0.00000000  0.00000000  0.25512050
   0.00000000  0.00000000  0.38469980
   0.50000000  0.00000000  0.00000000
   0.50000000  0.00000000  0.12723929
   0.50000000  0.00000000  0.25708074
   0.50000000  0.00000000  0.39672330
   0.00000000  0.50000000  0.00000000
   0.00000000  0.50000000  0.12723929
   0.00000000  0.50000000  0.25708074
   0.00000000  0.50000000  0.39672330
   0.00000000  0.00000000  0.06361964
   0.00000000  0.00000000  0.19085893
   0.00000000  0.00000000  0.32284234
   0.00000000  0.00000000  0.46956470
   0.00000000  0.00000000  0.51621105
Direct configuration=    22
   0.50000000  0.50000000  0.06361964
   0.50000000  0.50000000  0.19085893
   0.50000000  0.50000000  0.31750742
   0.50000000  0.50000000  0.45123163
   0.00000000  0.00000000  0.00000000
   0.00000000  0.00000000  0.12723929
   0.00000000  0.00000000  0.25512050
   0.00000000  0.00000000  0.38469980
   0.50000000  0.00000000  0.00000000
   0.50000000  0.00000000  0.12723929
   0.50000000  0.00000000  0.25708074
   0.50000000  0.00000000  0.39672330
   0.00000000  0.50000000  0.00000000
   0.00000000  0.50000000  0.12723929
   0.00000000  0.50000000  0.25708074
   0.00000000  0.50000000  0.39672330
   0.00000000  0.00000000  0.06361964
   0.00000000  0.00000000  0.19085893
   0.00000000  0.00000000  0.32284234
   0.00000000  0.00000000  0.46956470
   0.00000000  0.00000000  0.51621105
Direct configuration=    23
   0.50000000  0.50000000  0.06361964
   0.50000000  0.50000000  0.19085893
   0.50000000  0.50000000  0.31750742
   0.50000000  0.50000000  0.45123163
   0.00000000  0.00000000  0.00000000
   0.00000000  0.00000000  0.12723929
   0.00000000  0.00000000  0.25512050
   0.00000000  0.00000000  0.38469980
   0.50000000  0.00000000  0.00000000
   0.50000000  0.00000000  0.12723929
   0.50000000  0.00000000  0.25708074
   0.50000000  0.00000000  0.39672330
   0.00000000  0.50000000  0.00000000
   0.00000000  0.50000000  0.12723929
   0.00000000  0.50000000  0.25708074
   0.00000000  0.50000000  0.39672330
   0.00000000  0.00000000  0.06361964
   0.00000000  0.00000000  0.19085893
   0.00000000  0.00000000  0.32284234
   0.00000000  0.00000000  0.46956470
   0.00000000  0.00000000  0.51621105
Direct configuration=    24
   0.50000000  0.50000000  0.06361964
   0.50000000  0.50000000  0.19085893
   0.50000000  0.50000000  0.31750742
   0.50000000  0.50000000  0.45123163
   0.00000000  0.00000000  0.00000000
   0.00000000  0.00000000  0.12723929
   0.00000000  0.00000000  0.25512050
   0.00000000  0.00000000  0.38469980
   0.50000000  0.00000000  0.00000000
   0.50000000  0.00000000  0.12723929
   0.50000000  0.00000000  0.25708074
   0.50000000  0.00000000  0.39672330
   0.00000000  0.50000000  0.00000000
   0.00000000  0.50000000  0.12723929
   0.00000000  0.50000000  0.25708074
   0.00000000  0.50000000  0.39672330
   0.00000000  0.00000000  0.06361964
   0.00000000  0.00000000  0.19085893
   0.00000000  0.00000000  0.32284234
   0.00000000  0.00000000  0.46956470
   0.00000000  0.00000000  0.51621105
Direct configuration=    25
   0.50000000  0.50000000  0.06361964
   0.50000000  0.50000000  0.19085893
   0.50000000  0.50000000  0.31750742
   0.50000000  0.50000000  0.45123163
   0.00000000  0.00000000  0.00000000
   0.00000000  0.00000000  0.12723929
   0.00000000  0.00000000  0.25512050
   0.00000000  0.00000000  0.38469980
   0.50000000  0.00000000  0.00000000
   0.50000000  0.00000000  0.12723929
   0.50000000  0.00000000  0.25708074
   0.50000000  0.00000000  0.39672330
   0.00000000  0.50000000  0.00000000
   0.00000000  0.50000000  0.12723929
   0.00000000  0.50000000  0.25708074
   0.00000000  0.50000000  0.39672330
   0.00000000  0.00000000  0.06361964
   0.00000000  0.00000000  0.19085893
   0.00000000  0.00000000  0.32284234
   0.00000000  0.00000000  0.46956470
   0.00000000  0.00000000  0.51621105
Direct configuration=    26
   0.50000000  0.50000000  0.06361964
   0.50000000  0.50000000  0.19085893
   0.50000000  0.50000000  0.31750742
   0.50000000  0.50000000  0.45123163
   0.00000000  0.00000000  0.00000000
   0.00000000  0.00000000  0.12723929
   0.00000000  0.00000000  0.25512050
   0.00000000  0.00000000  0.38469980
   0.50000000  0.00000000  0.00000000
   0.50000000  0.00000000  0.12723929
   0.50000000  0.00000000  0.25708074
   0.50000000  0.00000000  0.39672330
   0.00000000  0.50000000  0.00000000
   0.00000000  0.50000000  0.12723929
   0.00000000  0.50000000  0.25708074
   0.00000000  0.50000000  0.39672330
   0.00000000  0.00000000  0.06361964
   0.00000000  0.00000000  0.19085893
   0.00000000  0.00000000  0.32284234
   0.00000000  0.00000000  0.46956470
   0.00000000  0.00000000  0.51621105
Direct configuration=    27
   0.50000000  0.50000000  0.06361964
   0.50000000  0.50000000  0.19085893
   0.50000000  0.50000000  0.31750742
   0.50000000  0.50000000  0.45123163
   0.00000000  0.00000000  0.00000000
   0.00000000  0.00000000  0.12723929
   0.00000000  0.00000000  0.25512050
   0.00000000  0.00000000  0.38469980
   0.50000000  0.00000000  0.00000000
   0.50000000  0.00000000  0.12723929
   0.50000000  0.00000000  0.25708074
   0.50000000  0.00000000  0.39672330
   0.00000000  0.50000000  0.00000000
   0.00000000  0.50000000  0.12723929
   0.00000000  0.50000000  0.25708074
   0.00000000  0.50000000  0.39672330
   0.00000000  0.00000000  0.06361964
   0.00000000  0.00000000  0.19085893
   0.00000000  0.00000000  0.32284234
   0.00000000  0.00000000  0.46956470
   0.00000000  0.00000000  0.51621105
Direct configuration=    28
   0.50000000  0.50000000  0.06361964
   0.50000000  0.50000000  0.19085893
   0.50000000  0.50000000  0.31750742
   0.50000000  0.50000000  0.45123163
   0.00000000  0.00000000  0.00000000
   0.00000000  0.00000000  0.12723929
   0.00000000  0.00000000  0.25512050
   0.00000000  0.00000000  0.38469980
   0.50000000  0.00000000  0.00000000
   0.50000000  0.00000000  0.12723929
   0.50000000  0.00000000  0.25708074
   0.50000000  0.00000000  0.39672330
   0.00000000  0.50000000  0.00000000
   0.00000000  0.50000000  0.12723929
   0.00000000  0.50000000  0.25708074
   0.00000000  0.50000000  0.39672330
   0.00000000  0.00000000  0.06361964
   0.00000000  0.00000000  0.19085893
   0.00000000  0.00000000  0.32284234
   0.00000000  0.00000000  0.46956470
   0.00000000  0.00000000  0.51621105
Direct configuration=    29
   0.50000000  0.50000000  0.06361964
   0.50000000  0.50000000  0.19085893
   0.50000000  0.50000000  0.31750742
   0.50000000  0.50000000  0.45123163
   0.00000000  0.00000000  0.00000000
   0.00000000  0.00000000  0.12723929
   0.00000000  0.00000000  0.25512050
   0.00000000  0.00000000  0.38469980
   0.50000000  0.00000000  0.00000000
   0.50000000  0.00000000  0.12723929
   0.50000000  0.00000000  0.25708074
   0.50000000  0.00000000  0.39672330
   0.00000000  0.50000000  0.00000000
   0.00000000  0.50000000  0.12723929
   0.00000000  0.50000000  0.25708074
   0.00000000  0.50000000  0.39672330
   0.00000000  0.00000000  0.06361964
   0.00000000  0.00000000  0.19085893
   0.00000000  0.00000000  0.32284234
   0.00000000  0.00000000  0.46956470
   0.00000000  0.00000000  0.51621105
Direct configuration=    30
   0.50000000  0.50000000  0.06361964
   0.50000000  0.50000000  0.19085893
   0.50000000  0.50000000  0.31750742
   0.50000000  0.50000000  0.45123163
   0.00000000  0.00000000  0.00000000
   0.00000000  0.00000000  0.12723929
   0.00000000  0.00000000  0.25512050
   0.00000000  0.00000000  0.38469980
   0.50000000  0.00000000  0.00000000
   0.50000000  0.00000000  0.12723929
   0.50000000  0.00000000  0.25708074
   0.50000000  0.00000000  0.39672330
   0.00000000  0.50000000  0.00000000
   0.00000000  0.50000000  0.12723929
   0.00000000  0.50000000  0.25708074
   0.00000000  0.50000000  0.39672330
   0.00000000  0.00000000  0.06361964
   0.00000000  0.00000000  0.19085893
   0.00000000  0.00000000  0.32284234
   0.00000000  0.00000000  0.46956470
   0.00000000  0.00000000  0.51621105
Direct configuration=    31
   0.50000000  0.50000000  0.06361964
   0.50000000  0.50000000  0.19085893
   0.50000000  0.50000000  0.31750742
   0.50000000  0.50000000  0.45123163
   0.00000000  0.00000000  0.00000000
   0.00000000  0.00000000  0.12723929
   0.00000000  0.00000000  0.25512050
   0.00000000  0.00000000  0.38469980
   0.50000000  0.00000000  0.00000000
   0.50000000  0.00000000  0.12723929
   0.50000000  0.00000000  0.25708074
   0.50000000  0.00000000  0.39672330
   0.00000000  0.50000000  0.00000000
   0.00000000  0.50000000  0.12723929
   0.00000000  0.50000000  0.25708074
   0.00000000  0.50000000  0.39672330
   0.00000000  0.00000000  0.06361964
   0.00000000  0.00000000  0.19085893
   0.00000000  0.00000000  0.32284234
   0.00000000  0.00000000  0.46956470
   0.00000000  0.00000000  0.51621105
Direct configuration=    32
   0.50000000  0.50000000  0.06361964
   0.50000000  0.50000000  0.19085893
   0.50000000  0.50000000  0.31750742
   0.50000000  0.50000000  0.45123163
   0.00000000  0.00000000  0.00000000
   0.00000000  0.00000000  0.12723929
   0.00000000  0.00000000  0.25512050
   0.00000000  0.00000000  0.38469980
   0.50000000  0.00000000  0.00000000
   0.50000000  0.00000000  0.12723929
   0.50000000  0.00000000  0.25708074
   0.50000000  0.00000000  0.39672330
   0.00000000  0.50000000  0.00000000
   0.00000000  0.50000000  0.12723929
   0.00000000  0.50000000  0.25708074
   0.00000000  0.50000000  0.39672330
   0.00000000  0.00000000  0.06361964
   0.00000000  0.00000000  0.19085893
   0.00000000  0.00000000  0.32284234
   0.00000000  0.00000000  0.46956470
   0.00000000  0.00000000  0.51621105
Direct configuration=    33
   0.50000000  0.50000000  0.06361964
   0.50000000  0.50000000  0.19085893
   0.50000000  0.50000000  0.31750742
   0.50000000  0.50000000  0.45123163
   0.00000000  0.00000000  0.00000000
   0.00000000  0.00000000  0.12723929
   0.00000000  0.00000000  0.25512050
   0.00000000  0.00000000  0.38469980
   0.50000000  0.00000000  0.00000000
   0.50000000  0.00000000  0.12723929
   0.50000000  0.00000000  0.25708074
   0.50000000  0.00000000  0.39672330
   0.00000000  0.50000000  0.00000000
   0.00000000  0.50000000  0.12723929
   0.00000000  0.50000000  0.25708074
   0.00000000  0.50000000  0.39672330
   0.00000000  0.00000000  0.06361964
   0.00000000  0.00000000  0.19085893
   0.00000000  0.00000000  0.32284234
   0.00000000  0.00000000  0.46956470
   0.00000000  0.00000000  0.51621105
Direct configuration=    34
   0.50000000  0.50000000  0.06361964
   0.50000000  0.50000000  0.19085893
   0.50000000  0.50000000  0.31750742
   0.50000000  0.50000000  0.45123163
   0.00000000  0.00000000  0.00000000
   0.00000000  0.00000000  0.12723929
   0.00000000  0.00000000  0.25512050
   0.00000000  0.00000000  0.38469980
   0.50000000  0.00000000  0.00000000
   0.50000000  0.00000000  0.12723929
   0.50000000  0.00000000  0.25708074
   0.50000000  0.00000000  0.39672330
   0.00000000  0.50000000  0.00000000
   0.00000000  0.50000000  0.12723929
   0.00000000  0.50000000  0.25708074
   0.00000000  0.50000000  0.39672330
   0.00000000  0.00000000  0.06361964
   0.00000000  0.00000000  0.19085893
   0.00000000  0.00000000  0.32284234
   0.00000000  0.00000000  0.46956470
   0.00000000  0.00000000  0.51621105
Direct configuration=    35
   0.50000000  0.50000000  0.06361964
   0.50000000  0.50000000  0.19085893
   0.50000000  0.50000000  0.31750742
   0.50000000  0.50000000  0.45123163
   0.00000000  0.00000000  0.00000000
   0.00000000  0.00000000  0.12723929
   0.00000000  0.00000000  0.25512050
   0.00000000  0.00000000  0.38469980
   0.50000000  0.00000000  0.00000000
   0.50000000  0.00000000  0.12723929
   0.50000000  0.00000000  0.25708074
   0.50000000  0.00000000  0.39672330
   0.00000000  0.50000000  0.00000000
   0.00000000  0.50000000  0.12723929
   0.00000000  0.50000000  0.25708074
   0.00000000  0.50000000  0.39672330
   0.00000000  0.00000000  0.06361964
   0.00000000  0.00000000  0.19085893
   0.00000000  0.00000000  0.32284234
   0.00000000  0.00000000  0.46956470
   0.00000000  0.00000000  0.51621105
Direct configuration=    36
   0.50000000  0.50000000  0.06361964
   0.50000000  0.50000000  0.19085893
   0.50000000  0.50000000  0.31750742
   0.50000000  0.50000000  0.45123163
   0.00000000  0.00000000  0.00000000
   0.00000000  0.00000000  0.12723929
   0.00000000  0.00000000  0.25512050
   0.00000000  0.00000000  0.38469980
   0.50000000  0.00000000  0.00000000
   0.50000000  0.00000000  0.12723929
   0.50000000  0.00000000  0.25708074
   0.50000000  0.00000000  0.39672330
   0.00000000  0.50000000  0.00000000
   0.00000000  0.50000000  0.12723929
   0.00000000  0.50000000  0.25708074
   0.00000000  0.50000000  0.39672330
   0.00000000  0.00000000  0.06361964
   0.00000000  0.00000000  0.19085893
   0.00000000  0.00000000  0.32284234
   0.00000000  0.00000000  0.46956470
   0.00000000  0.00000000  0.51621105
Direct configuration=    37
   0.50000000  0.50000000  0.06361964