unknown system                          
           1
     3.886808    0.000000    0.000000
     0.000000    3.886808    0.000000
     0.000000    0.000000   30.547233
   Sr   Fe   O 
   4   4  13
Direct configuration=     1
   0.50000000  0.50000000  0.06361964
   0.50000000  0.50000000  0.19085893
   0.50000000  0.50000000  0.31852341
   0.50000000  0.50000000  0.44076390
   0.00000000  0.00000000  0.00000000
   0.00000000  0.00000000  0.12723929
   0.00000000  0.00000000  0.25556037
   0.00000000  0.00000000  0.38494139
   0.50000000  0.00000000  0.00000000
   0.50000000  0.00000000  0.12723929
   0.50000000  0.00000000  0.25524104
   0.50000000  0.00000000  0.38439581
   0.00000000  0.50000000  0.00000000
   0.00000000  0.50000000  0.12723929
   0.00000000  0.50000000  0.25524104
   0.00000000  0.50000000  0.38439581
   0.00000000  0.00000000  0.06361964
   0.00000000  0.00000000  0.19085893
   0.00000000  0.00000000  0.32020575
   0.00000000  0.00000000  0.44865975
   0.00000000  0.00000000  0.50000000
Direct configuration=     2
   0.50000000  0.50000000  0.06361964
   0.50000000  0.50000000  0.19085893
   0.50000000  0.50000000  0.31848615
   0.50000000  0.50000000  0.44240228
   0.00000000  0.00000000  0.00000000
   0.00000000  0.00000000  0.12723929
   0.00000000  0.00000000  0.25548543
   0.00000000  0.00000000  0.38190630
   0.50000000  0.00000000  0.00000000
   0.50000000  0.00000000  0.12723929
   0.50000000  0.00000000  0.25536899
   0.50000000  0.00000000  0.38511243
   0.00000000  0.50000000  0.00000000
   0.00000000  0.50000000  0.12723929
   0.00000000  0.50000000  0.25536899
   0.00000000  0.50000000  0.38511243
   0.00000000  0.00000000  0.06361964
   0.00000000  0.00000000  0.19085893
   0.00000000  0.00000000  0.31970319
   0.00000000  0.00000000  0.45184565
   0.00000000  0.00000000  0.49696081
Direct configuration=     3
   0.50000000  0.50000000  0.06361964
   0.50000000  0.50000000  0.19085893
   0.50000000  0.50000000  0.31849531
   0.50000000  0.50000000  0.44199952
   0.00000000  0.00000000  0.00000000
   0.00000000  0.00000000  0.12723929
   0.00000000  0.00000000  0.25550385
   0.00000000  0.00000000  0.38265242
   0.50000000  0.00000000  0.00000000
   0.50000000  0.00000000  0.12723929
   0.50000000  0.00000000  0.25533753
   0.50000000  0.00000000  0.38493626
   0.00000000  0.50000000  0.00000000
   0.00000000  0.50000000  0.12723929
   0.00000000  0.50000000  0.25533753
   0.00000000  0.50000000  0.38493626
   0.00000000  0.00000000  0.06361964
   0.00000000  0.00000000  0.19085893
   0.00000000  0.00000000  0.31982674
   0.00000000  0.00000000  0.45106246
   0.00000000  0.00000000  0.49770794
Direct configuration=     4
   0.50000000  0.50000000  0.06361964
   0.50000000  0.50000000  0.19085893
   0.50000000  0.50000000  0.31806624
   0.50000000  0.50000000  0.44303095
   0.00000000  0.00000000  0.00000000
   0.00000000  0.00000000  0.12723929
   0.00000000  0.00000000  0.25491038
   0.00000000  0.00000000  0.37967848
   0.50000000  0.00000000  0.00000000
   0.50000000  0.00000000  0.12723929
   0.50000000  0.00000000  0.25554563
   0.50000000  0.00000000  0.38609427
   0.00000000  0.50000000  0.00000000
   0.00000000  0.50000000  0.12723929
   0.00000000  0.50000000  0.25554563
   0.00000000  0.50000000  0.38609427
   0.00000000  0.00000000  0.06361964
   0.00000000  0.00000000  0.19085893
   0.00000000  0.00000000  0.31930056
   0.00000000  0.00000000  0.45108668
   0.00000000  0.00000000  0.49835377
Direct configuration=     5
   0.50000000  0.50000000  0.06361964
   0.50000000  0.50000000  0.19085893
   0.50000000  0.50000000  0.31802348
   0.50000000  0.50000000  0.44313375
   0.00000000  0.00000000  0.00000000
   0.00000000  0.00000000  0.12723929
   0.00000000  0.00000000  0.25485123
   0.00000000  0.00000000  0.37938206
   0.50000000  0.00000000  0.00000000
   0.50000000  0.00000000  0.12723929
   0.50000000  0.00000000  0.25556637
   0.50000000  0.00000000  0.38620969
   0.00000000  0.50000000  0.00000000
   0.00000000  0.50000000  0.12723929
   0.00000000  0.50000000  0.25556637
   0.00000000  0.50000000  0.38620969
   0.00000000  0.00000000  0.06361964
   0.00000000  0.00000000  0.19085893
   0.00000000  0.00000000  0.31924811
   0.00000000  0.00000000  0.45108909
   0.00000000  0.00000000  0.49841814
Direct configuration=     6
   0.50000000  0.50000000  0.06361964
   0.50000000  0.50000000  0.19085893
   0.50000000  0.50000000  0.31744938
   0.50000000  0.50000000  0.44335138
   0.00000000  0.00000000  0.00000000
   0.00000000  0.00000000  0.12723929
   0.00000000  0.00000000  0.25402035
   0.00000000  0.00000000  0.37915913
   0.50000000  0.00000000  0.00000000
   0.50000000  0.00000000  0.12723929
   0.50000000  0.00000000  0.25574714
   0.50000000  0.00000000  0.38681032
   0.00000000  0.50000000  0.00000000
   0.00000000  0.50000000  0.12723929
   0.00000000  0.50000000  0.25574714
   0.00000000  0.50000000  0.38681032
   0.00000000  0.00000000  0.06361964
   0.00000000  0.00000000  0.19085893
   0.00000000  0.00000000  0.31804358
   0.00000000  0.00000000  0.45181383
   0.00000000  0.00000000  0.49888009
Direct configuration=     7
   0.50000000  0.50000000  0.06361964
   0.50000000  0.50000000  0.19085893
   0.50000000  0.50000000  0.31706081
   0.50000000  0.50000000  0.44349867
   0.00000000  0.00000000  0.00000000
   0.00000000  0.00000000  0.12723929
   0.00000000  0.00000000  0.25345799
   0.00000000  0.00000000  0.37900824
   0.50000000  0.00000000  0.00000000
   0.50000000  0.00000000  0.12723929
   0.50000000  0.00000000  0.25586949
   0.50000000  0.00000000  0.38721685
   0.00000000  0.50000000  0.00000000
   0.00000000  0.50000000  0.12723929
   0.00000000  0.50000000  0.25586949
   0.00000000  0.50000000  0.38721685
   0.00000000  0.00000000  0.06361964
   0.00000000  0.00000000  0.19085893
   0.00000000  0.00000000  0.31722831
   0.00000000  0.00000000  0.45230436
   0.00000000  0.00000000  0.49919275
Direct configuration=     8
   0.50000000  0.50000000  0.06361964
   0.50000000  0.50000000  0.19085893
   0.50000000  0.50000000  0.31718049
   0.50000000  0.50000000  0.44345330
   0.00000000  0.00000000  0.00000000
   0.00000000  0.00000000  0.12723929
   0.00000000  0.00000000  0.25363120
   0.00000000  0.00000000  0.37905472
   0.50000000  0.00000000  0.00000000
   0.50000000  0.00000000  0.12723929
   0.50000000  0.00000000  0.25583181
   0.50000000  0.00000000  0.38709163
   0.00000000  0.50000000  0.00000000
   0.00000000  0.50000000  0.12723929
   0.00000000  0.50000000  0.25583181
   0.00000000  0.50000000  0.38709163
   0.00000000  0.00000000  0.06361964
   0.00000000  0.00000000  0.19085893
   0.00000000  0.00000000  0.31747942
   0.00000000  0.00000000  0.45215327
   0.00000000  0.00000000  0.49909645
Direct configuration=     9
   0.50000000  0.50000000  0.06361964
   0.50000000  0.50000000  0.19085893
   0.50000000  0.50000000  0.31637074
   0.50000000  0.50000000  0.44341466
   0.00000000  0.00000000  0.00000000
   0.00000000  0.00000000  0.12723929
   0.00000000  0.00000000  0.25317946
   0.00000000  0.00000000  0.37886424
   0.50000000  0.00000000  0.00000000
   0.50000000  0.00000000  0.12723929
   0.50000000  0.00000000  0.25567284
   0.50000000  0.00000000  0.38740319
   0.00000000  0.50000000  0.00000000
   0.00000000  0.50000000  0.12723929
   0.00000000  0.50000000  0.25567284
   0.00000000  0.50000000  0.38740319
   0.00000000  0.00000000  0.06361964
   0.00000000  0.00000000  0.19085893
   0.00000000  0.00000000  0.31750663
   0.00000000  0.00000000  0.45277900
   0.00000000  0.00000000  0.50010359
Direct configuration=    10
   0.50000000  0.50000000  0.06361964
   0.50000000  0.50000000  0.19085893
   0.50000000  0.50000000  0.31547694
   0.50000000  0.50000000  0.44337200
   0.00000000  0.00000000  0.00000000
   0.00000000  0.00000000  0.12723929
   0.00000000  0.00000000  0.25268082
   0.00000000  0.00000000  0.37865399
   0.50000000  0.00000000  0.00000000
   0.50000000  0.00000000  0.12723929
   0.50000000  0.00000000  0.25549736
   0.50000000  0.00000000  0.38774710
   0.00000000  0.50000000  0.00000000
   0.00000000  0.50000000  0.12723929
   0.00000000  0.50000000  0.25549736
   0.00000000  0.50000000  0.38774710
   0.00000000  0.00000000  0.06361964
   0.00000000  0.00000000  0.19085893
   0.00000000  0.00000000  0.31753666
   0.00000000  0.00000000  0.45346969
   0.00000000  0.00000000  0.50121527
Direct configuration=    11
   0.50000000  0.50000000  0.06361964
   0.50000000  0.50000000  0.19085893
   0.50000000  0.50000000  0.31518160
   0.50000000  0.50000000  0.44334832
   0.00000000  0.00000000  0.00000000
   0.00000000  0.00000000  0.12723929
   0.00000000  0.00000000  0.25260665
   0.00000000  0.00000000  0.37861820
   0.50000000  0.00000000  0.00000000
   0.50000000  0.00000000  0.12723929
   0.50000000  0.00000000  0.25540849
   0.50000000  0.00000000  0.38784759
   0.00000000  0.50000000  0.00000000
   0.00000000  0.50000000  0.12723929
   0.00000000  0.50000000  0.25540849
   0.00000000  0.50000000  0.38784759
   0.00000000  0.00000000  0.06361964
   0.00000000  0.00000000  0.19085893
   0.00000000  0.00000000  0.31755276
   0.00000000  0.00000000  0.45388939
   0.00000000  0.00000000  0.50146447
Direct configuration=    12
   0.50000000  0.50000000  0.06361964
   0.50000000  0.50000000  0.19085893
   0.50000000  0.50000000  0.31429559
   0.50000000  0.50000000  0.44327728
   0.00000000  0.00000000  0.00000000
   0.00000000  0.00000000  0.12723929
   0.00000000  0.00000000  0.25238417
   0.00000000  0.00000000  0.37851082
   0.50000000  0.00000000  0.00000000
   0.50000000  0.00000000  0.12723929
   0.50000000  0.00000000  0.25514187
   0.50000000  0.00000000  0.38814907
   0.00000000  0.50000000  0.00000000
   0.00000000  0.50000000  0.12723929
   0.00000000  0.50000000  0.25514187
   0.00000000  0.50000000  0.38814907
   0.00000000  0.00000000  0.06361964
   0.00000000  0.00000000  0.19085893
   0.00000000  0.00000000  0.31760106
   0.00000000  0.00000000  0.45514850
   0.00000000  0.00000000  0.50221208
Direct configuration=    13
   0.50000000  0.50000000  0.06361964
   0.50000000  0.50000000  0.19085893
   0.50000000  0.50000000  0.31252356
   0.50000000  0.50000000  0.44313522
   0.00000000  0.00000000  0.00000000
   0.00000000  0.00000000  0.12723929
   0.00000000  0.00000000  0.25193919
   0.00000000  0.00000000  0.37829607
   0.50000000  0.00000000  0.00000000
   0.50000000  0.00000000  0.12723929
   0.50000000  0.00000000  0.25460864
   0.50000000  0.00000000  0.38875203
   0.00000000  0.50000000  0.00000000
   0.00000000  0.50000000  0.12723929
   0.00000000  0.50000000  0.25460864
   0.00000000  0.50000000  0.38875203
   0.00000000  0.00000000  0.06361964
   0.00000000  0.00000000  0.19085893
   0.00000000  0.00000000  0.31769766
   0.00000000  0.00000000  0.45766671
   0.00000000  0.00000000  0.50370730
Direct configuration=    14
   0.50000000  0.50000000  0.06361964
   0.50000000  0.50000000  0.19085893
   0.50000000  0.50000000  0.31300638
   0.50000000  0.50000000  0.44317392
   0.00000000  0.00000000  0.00000000
   0.00000000  0.00000000  0.12723929
   0.00000000  0.00000000  0.25206043
   0.00000000  0.00000000  0.37835458
   0.50000000  0.00000000  0.00000000
   0.50000000  0.00000000  0.12723929
   0.50000000  0.00000000  0.25475393
   0.50000000  0.00000000  0.38858774
   0.00000000  0.50000000  0.00000000
   0.00000000  0.50000000  0.12723929
   0.00000000  0.50000000  0.25475393
   0.00000000  0.50000000  0.38858774
   0.00000000  0.00000000  0.06361964
   0.00000000  0.00000000  0.19085893
   0.00000000  0.00000000  0.31767134
   0.00000000  0.00000000  0.45698058
   0.00000000  0.00000000  0.50329990
Direct configuration=    15
   0.50000000  0.50000000  0.06361964
   0.50000000  0.50000000  0.19085893
   0.50000000  0.50000000  0.31246978
   0.50000000  0.50000000  0.44303453
   0.00000000  0.00000000  0.00000000
   0.00000000  0.00000000  0.12723929
   0.00000000  0.00000000  0.25218251
   0.00000000  0.00000000  0.37837345
   0.50000000  0.00000000  0.00000000
   0.50000000  0.00000000  0.12723929
   0.50000000  0.00000000  0.25450044
   0.50000000  0.00000000  0.38885270
   0.00000000  0.50000000  0.00000000
   0.00000000  0.50000000  0.12723929
   0.00000000  0.50000000  0.25450044
   0.00000000  0.50000000  0.38885270
   0.00000000  0.00000000  0.06361964
   0.00000000  0.00000000  0.19085893
   0.00000000  0.00000000  0.31758706
   0.00000000  0.00000000  0.45779668
   0.00000000  0.00000000  0.50419056
Direct configuration=    16
   0.50000000  0.50000000  0.06361964
   0.50000000  0.50000000  0.19085893
   0.50000000  0.50000000  0.31102887
   0.50000000  0.50000000  0.44266023
   0.00000000  0.00000000  0.00000000
   0.00000000  0.00000000  0.12723929
   0.00000000  0.00000000  0.25251031
   0.00000000  0.00000000  0.37842411
   0.50000000  0.00000000  0.00000000
   0.50000000  0.00000000  0.12723929
   0.50000000  0.00000000  0.25381975
   0.50000000  0.00000000  0.38956419
   0.00000000  0.50000000  0.00000000
   0.00000000  0.50000000  0.12723929
   0.00000000  0.50000000  0.25381975
   0.00000000  0.50000000  0.38956419
   0.00000000  0.00000000  0.06361964
   0.00000000  0.00000000  0.19085893
   0.00000000  0.00000000  0.31736076
   0.00000000  0.00000000  0.45998809
   0.00000000  0.00000000  0.50658218
Direct configuration=    17
   0.50000000  0.50000000  0.06361964
   0.50000000  0.50000000  0.19085893
   0.50000000  0.50000000  0.31137301
   0.50000000  0.50000000  0.44274963
   0.00000000  0.00000000  0.00000000
   0.00000000  0.00000000  0.12723929
   0.00000000  0.00000000  0.25243202
   0.00000000  0.00000000  0.37841201
   0.50000000  0.00000000  0.00000000
   0.50000000  0.00000000  0.12723929
   0.50000000  0.00000000  0.25398232
   0.50000000  0.00000000  0.38939426
   0.00000000  0.50000000  0.00000000
   0.00000000  0.50000000  0.12723929
   0.00000000  0.50000000  0.25398232
   0.00000000  0.50000000  0.38939426
   0.00000000  0.00000000  0.06361964
   0.00000000  0.00000000  0.19085893
   0.00000000  0.00000000  0.31741481
   0.00000000  0.00000000  0.45946471
   0.00000000  0.00000000  0.50601099
Direct configuration=    18
   0.50000000  0.50000000  0.06361964
   0.50000000  0.50000000  0.19085893
   0.50000000  0.50000000  0.31169331
   0.50000000  0.50000000  0.44275812
   0.00000000  0.00000000  0.00000000
   0.00000000  0.00000000  0.12723929
   0.00000000  0.00000000  0.25247871
   0.00000000  0.00000000  0.37850964
   0.50000000  0.00000000  0.00000000
   0.50000000  0.00000000  0.12723929
   0.50000000  0.00000000  0.25400076
   0.50000000  0.00000000  0.38940615
   0.00000000  0.50000000  0.00000000
   0.00000000  0.50000000  0.12723929
   0.00000000  0.50000000  0.25400076
   0.00000000  0.50000000  0.38940615
   0.00000000  0.00000000  0.06361964
   0.00000000  0.00000000  0.19085893
   0.00000000  0.00000000  0.31740585
   0.00000000  0.00000000  0.45952151
   0.00000000  0.00000000  0.50612131
Direct configuration=    19
   0.50000000  0.50000000  0.06361964
   0.50000000  0.50000000  0.19085893
   0.50000000  0.50000000  0.31265423
   0.50000000  0.50000000  0.44278360
   0.00000000  0.00000000  0.00000000
   0.00000000  0.00000000  0.12723929
   0.00000000  0.00000000  0.25261879
   0.00000000  0.00000000  0.37880255
   0.50000000  0.00000000  0.00000000
   0.50000000  0.00000000  0.12723929
   0.50000000  0.00000000  0.25405607
   0.50000000  0.00000000  0.38944181
   0.00000000  0.50000000  0.00000000
   0.00000000  0.50000000  0.12723929
   0.00000000  0.50000000  0.25405607
   0.00000000  0.50000000  0.38944181
   0.00000000  0.00000000  0.06361964
   0.00000000  0.00000000  0.19085893
   0.00000000  0.00000000  0.31737896
   0.00000000  0.00000000  0.45969192
   0.00000000  0.00000000  0.50645229
Direct configuration=    20
   0.50000000  0.50000000  0.06361964
   0.50000000  0.50000000  0.19085893
   0.50000000  0.50000000  0.31457606
   0.50000000  0.50000000  0.44283455
   0.00000000  0.00000000  0.00000000
   0.00000000  0.00000000  0.12723929
   0.00000000  0.00000000  0.25289895
   0.00000000  0.00000000  0.37938835
   0.50000000  0.00000000  0.00000000
   0.50000000  0.00000000  0.12723929
   0.50000000  0.00000000  0.25416669
   0.50000000  0.00000000  0.38951314
   0.00000000  0.50000000  0.00000000
   0.00000000  0.50000000  0.12723929
   0.00000000  0.50000000  0.25416669
   0.00000000  0.50000000  0.38951314
   0.00000000  0.00000000  0.06361964
   0.00000000  0.00000000  0.19085893
   0.00000000  0.00000000  0.31732519
   0.00000000  0.00000000  0.46003272
   0.00000000  0.00000000  0.50711425
Direct configuration=    21
   0.50000000  0.50000000  0.06361964
   0.50000000  0.50000000  0.19085893
   0.50000000  0.50000000  0.31345638
   0.50000000  0.50000000  0.44280486
   0.00000000  0.00000000  0.00000000
   0.00000000  0.00000000  0.12723929
   0.00000000  0.00000000  0.25273573
   0.00000000  0.00000000  0.37904705
   0.50000000  0.00000000  0.00000000
   0.50000000  0.00000000  0.12723929
   0.50000000  0.00000000  0.25410224
   0.50000000  0.00000000  0.38947158
   0.00000000  0.50000000  0.00000000
   0.00000000  0.50000000  0.12723929
   0.00000000  0.50000000  0.25410224
   0.00000000  0.50000000  0.38947158
   0.00000000  0.00000000  0.06361964
   0.00000000  0.00000000  0.19085893
   0.00000000  0.00000000  0.31735652
   0.00000000  0.00000000  0.45983417
   0.00000000  0.00000000  0.50672859
Direct configuration=    22
   0.50000000  0.50000000  0.06361964
   0.50000000  0.50000000  0.19085893
   0.50000000  0.50000000  0.31373373
   0.50000000  0.50000000  0.44288454
   0.00000000  0.00000000  0.00000000
   0.00000000  0.00000000  0.12723929
   0.00000000  0.00000000  0.25275693
   0.00000000  0.00000000  0.37907465
   0.50000000  0.00000000  0.00000000
   0.50000000  0.00000000  0.12723929
   0.50000000  0.00000000  0.25414500
   0.50000000  0.00000000  0.38948027
   0.00000000  0.50000000  0.00000000
   0.00000000  0.50000000  0.12723929
   0.00000000  0.50000000  0.25414500
   0.00000000  0.50000000  0.38948027
   0.00000000  0.00000000  0.06361964
   0.00000000  0.00000000  0.19085893
   0.00000000  0.00000000  0.31751236
   0.00000000  0.00000000  0.45999495
   0.00000000  0.00000000  0.50675744
Direct configuration=    23
   0.50000000  0.50000000  0.06361964
   0.50000000  0.50000000  0.19085893
   0.50000000  0.50000000  0.31456577
   0.50000000  0.50000000  0.44312356
   0.00000000  0.00000000  0.00000000
   0.00000000  0.00000000  0.12723929
   0.00000000  0.00000000  0.25282053
   0.00000000  0.00000000  0.37915742
   0.50000000  0.00000000  0.00000000
   0.50000000  0.00000000  0.12723929
   0.50000000  0.00000000  0.25427327
   0.50000000  0.00000000  0.38950634
   0.00000000  0.50000000  0.00000000
   0.00000000  0.50000000  0.12723929
   0.00000000  0.50000000  0.25427327
   0.00000000  0.50000000  0.38950634
   0.00000000  0.00000000  0.06361964
   0.00000000  0.00000000  0.19085893
   0.00000000  0.00000000  0.31797989
   0.00000000  0.00000000  0.46047729
   0.00000000  0.00000000  0.50684401
Direct configuration=    24
   0.50000000  0.50000000  0.06361964
   0.50000000  0.50000000  0.19085893
   0.50000000  0.50000000  0.31484123
   0.50000000  0.50000000  0.44329470
   0.00000000  0.00000000  0.00000000
   0.00000000  0.00000000  0.12723929
   0.00000000  0.00000000  0.25286294
   0.00000000  0.00000000  0.37918830
   0.50000000  0.00000000  0.00000000
   0.50000000  0.00000000  0.12723929
   0.50000000  0.00000000  0.25439346
   0.50000000  0.00000000  0.38955744
   0.00000000  0.50000000  0.00000000
   0.00000000  0.50000000  0.12723929
   0.00000000  0.50000000  0.25439346
   0.00000000  0.50000000  0.38955744
   0.00000000  0.00000000  0.06361964
   0.00000000  0.00000000  0.19085893
   0.00000000  0.00000000  0.31826900
   0.00000000  0.00000000  0.46054683
   0.00000000  0.00000000  0.50710266
Direct configuration=    25
   0.50000000  0.50000000  0.06361964
   0.50000000  0.50000000  0.19085893
   0.50000000  0.50000000  0.31515629
   0.50000000  0.50000000  0.44349045
   0.00000000  0.00000000  0.00000000
   0.00000000  0.00000000  0.12723929
   0.00000000  0.00000000  0.25291144
   0.00000000  0.00000000  0.37922362
   0.50000000  0.00000000  0.00000000
   0.50000000  0.00000000  0.12723929
   0.50000000  0.00000000  0.25453093
   0.50000000  0.00000000  0.38961589
   0.00000000  0.50000000  0.00000000
   0.00000000  0.50000000  0.12723929
   0.00000000  0.50000000  0.25453093
   0.00000000  0.50000000  0.38961589
   0.00000000  0.00000000  0.06361964
   0.00000000  0.00000000  0.19085893
   0.00000000  0.00000000  0.31859967
   0.00000000  0.00000000  0.46062637
   0.00000000  0.00000000  0.50739848
Direct configuration=    26
   0.50000000  0.50000000  0.06361964
   0.50000000  0.50000000  0.19085893
   0.50000000  0.50000000  0.31526187
   0.50000000  0.50000000  0.44370915
   0.00000000  0.00000000  0.00000000
   0.00000000  0.00000000  0.12723929
   0.00000000  0.00000000  0.25302474
   0.00000000  0.00000000  0.37942740
   0.50000000  0.00000000  0.00000000
   0.50000000  0.00000000  0.12723929
   0.50000000  0.00000000  0.25469873
   0.50000000  0.00000000  0.38971057
   0.00000000  0.50000000  0.00000000
   0.00000000  0.50000000  0.12723929
   0.00000000  0.50000000  0.25469873
   0.00000000  0.50000000  0.38971057
   0.00000000  0.00000000  0.06361964
   0.00000000  0.00000000  0.19085893
   0.00000000  0.00000000  0.31867803
   0.00000000  0.00000000  0.46073811
   0.00000000  0.00000000  0.50758663
Direct configuration=    27
   0.50000000  0.50000000  0.06361964
   0.50000000  0.50000000  0.19085893
   0.50000000  0.50000000  0.31557860
   0.50000000  0.50000000  0.44436525
   0.00000000  0.00000000  0.00000000
   0.00000000  0.00000000  0.12723929
   0.00000000  0.00000000  0.25336466
   0.00000000  0.00000000  0.38003876
   0.50000000  0.00000000  0.00000000
   0.50000000  0.00000000  0.12723929
   0.50000000  0.00000000  0.25520214
   0.50000000  0.00000000  0.38999462
   0.00000000  0.50000000  0.00000000
   0.00000000  0.50000000  0.12723929
   0.00000000  0.50000000  0.25520214
   0.00000000  0.50000000  0.38999462
   0.00000000  0.00000000  0.06361964
   0.00000000  0.00000000  0.19085893
   0.00000000  0.00000000  0.31891313
   0.00000000  0.00000000  0.46107335
   0.00000000  0.00000000  0.50815107
Direct configuration=    28
   0.50000000  0.50000000  0.06361964
   0.50000000  0.50000000  0.19085893
   0.50000000  0.50000000  0.31621207
   0.50000000  0.50000000  0.44567745
   0.00000000  0.00000000  0.00000000
   0.00000000  0.00000000  0.12723929
   0.00000000  0.00000000  0.25404449
   0.00000000  0.00000000  0.38126148
   0.50000000  0.00000000  0.00000000
   0.50000000  0.00000000  0.12723929
   0.50000000  0.00000000  0.25620896
   0.50000000  0.00000000  0.39056272
   0.00000000  0.50000000  0.00000000
   0.00000000  0.50000000  0.12723929
   0.00000000  0.50000000  0.25620896
   0.00000000  0.50000000  0.39056272
   0.00000000  0.00000000  0.06361964
   0.00000000  0.00000000  0.19085893
   0.00000000  0.00000000  0.31938331
   0.00000000  0.00000000  0.46174383
   0.00000000  0.00000000  0.50927995
Direct configuration=    29
   0.50000000  0.50000000  0.06361964
   0.50000000  0.50000000  0.19085893
   0.50000000  0.50000000  0.31577093
   0.50000000  0.50000000  0.44476363
   0.00000000  0.00000000  0.00000000
   0.00000000  0.00000000  0.12723929
   0.00000000  0.00000000  0.25357106
   0.00000000  0.00000000  0.38040998
   0.50000000  0.00000000  0.00000000
   0.50000000  0.00000000  0.12723929
   0.50000000  0.00000000  0.25550781
   0.50000000  0.00000000  0.39016710
   0.00000000  0.50000000  0.00000000
   0.00000000  0.50000000  0.12723929
   0.00000000  0.50000000  0.25550781
   0.00000000  0.50000000  0.39016710
   0.00000000  0.00000000  0.06361964
   0.00000000  0.00000000  0.19085893
   0.00000000  0.00000000  0.31905587
   0.00000000  0.00000000  0.46127691
   0.00000000  0.00000000  0.50849380
Direct configuration=    30
   0.50000000  0.50000000  0.06361964
   0.50000000  0.50000000  0.19085893
   0.50000000  0.50000000  0.31581717
   0.50000000  0.50000000  0.44488061
   0.00000000  0.00000000  0.00000000
   0.00000000  0.00000000  0.12723929
   0.00000000  0.00000000  0.25363746
   0.00000000  0.00000000  0.38050128
   0.50000000  0.00000000  0.00000000
   0.50000000  0.00000000  0.12723929
   0.50000000  0.00000000  0.25559266
   0.50000000  0.00000000  0.39023452
   0.00000000  0.50000000  0.00000000
   0.00000000  0.50000000  0.12723929
   0.00000000  0.50000000  0.25559266
   0.00000000  0.50000000  0.39023452
   0.00000000  0.00000000  0.06361964
   0.00000000  0.00000000  0.19085893
   0.00000000  0.00000000  0.31911225
   0.00000000  0.00000000  0.46140007
   0.00000000  0.00000000  0.50853983
Direct configuration=    31
   0.50000000  0.50000000  0.06361964
   0.50000000  0.50000000  0.19085893
   0.50000000  0.50000000  0.31595588
   0.50000000  0.50000000  0.44523155
   0.00000000  0.00000000  0.00000000
   0.00000000  0.00000000  0.12723929
   0.00000000  0.00000000  0.25383667
   0.00000000  0.00000000  0.38077515
   0.50000000  0.00000000  0.00000000
   0.50000000  0.00000000  0.12723929
   0.50000000  0.00000000  0.25584721
   0.50000000  0.00000000  0.39043678
   0.00000000  0.50000000  0.00000000
   0.00000000  0.50000000  0.12723929
   0.00000000  0.50000000  0.25584721
   0.00000000  0.50000000  0.39043678
   0.00000000  0.00000000  0.06361964
   0.00000000  0.00000000  0.19085893
   0.00000000  0.00000000  0.31928140
   0.00000000  0.00000000  0.46176954
   0.00000000  0.00000000  0.50867793
Direct configuration=    32
   0.50000000  0.50000000  0.06361964
   0.50000000  0.50000000  0.19085893
   0.50000000  0.50000000  0.31623332
   0.50000000  0.50000000  0.44593343
   0.00000000  0.00000000  0.00000000
   0.00000000  0.00000000  0.12723929
   0.00000000  0.00000000  0.25423508
   0.00000000  0.00000000  0.38132291
   0.50000000  0.00000000  0.00000000
   0.50000000  0.00000000  0.12723929
   0.50000000  0.00000000  0.25635630
   0.50000000  0.00000000  0.39084130
   0.00000000  0.50000000  0.00000000
   0.00000000  0.50000000  0.12723929
   0.00000000  0.50000000  0.25635630
   0.00000000  0.50000000  0.39084130
   0.00000000  0.00000000  0.06361964
   0.00000000  0.00000000  0.19085893
   0.00000000  0.00000000  0.31961968
   0.00000000  0.00000000  0.46250848
   0.00000000  0.00000000  0.50895413
Direct configuration=    33
   0.50000000  0.50000000  0.06361964
   0.50000000  0.50000000  0.19085893
   0.50000000  0.50000000  0.31610110
   0.50000000  0.50000000  0.44559893
   0.00000000  0.00000000  0.00000000
   0.00000000  0.00000000  0.12723929
   0.00000000  0.00000000  0.25404521
   0.00000000  0.00000000  0.38106186
   0.50000000  0.00000000  0.00000000
   0.50000000  0.00000000  0.12723929
   0.50000000  0.00000000  0.25611367
   0.50000000  0.00000000  0.39064851
   0.00000000  0.50000000  0.00000000
   0.00000000  0.50000000  0.12723929
   0.00000000  0.50000000  0.25611367
   0.00000000  0.50000000  0.39064851
   0.00000000  0.00000000  0.06361964
   0.00000000  0.00000000  0.19085893
   0.00000000  0.00000000  0.31945846
   0.00000000  0.00000000  0.46215632
   0.00000000  0.00000000  0.50882250
Direct configuration=    34
   0.50000000  0.50000000  0.06361964
   0.50000000  0.50000000  0.19085893
   0.50000000  0.50000000  0.31612507
   0.50000000  0.50000000  0.44565957
   0.00000000  0.00000000  0.00000000
   0.00000000  0.00000000  0.12723929
   0.00000000  0.00000000  0.25407963
   0.00000000  0.00000000  0.38110918
   0.50000000  0.00000000  0.00000000
   0.50000000  0.00000000  0.12723929
   0.50000000  0.00000000  0.25615766
   0.50000000  0.00000000  0.39068346
   0.00000000  0.50000000  0.00000000
   0.00000000  0.50000000  0.12723929
   0.00000000  0.50000000  0.25615766
   0.00000000  0.50000000  0.39068346
   0.00000000  0.00000000  0.06361964
   0.00000000  0.00000000  0.19085893
   0.00000000  0.00000000  0.31948769
   0.00000000  0.00000000  0.46222016
   0.00000000  0.00000000  0.50884636
Direct configuration=    35
   0.50000000  0.50000000  0.06361964
   0.50000000  0.50000000  0.19085893
   0.50000000  0.50000000  0.31611170
   0.50000000  0.50000000  0.44562574
   0.00000000  0.00000000  0.00000000
   0.00000000  0.00000000  0.12723929
   0.00000000  0.00000000  0.25406043
   0.00000000  0.00000000  0.38108278
   0.50000000  0.00000000  0.00000000
   0.50000000  0.00000000  0.12723929
   0.50000000  0.00000000  0.25613312
   0.50000000  0.00000000  0.39066397
   0.00000000  0.50000000  0.00000000
   0.00000000  0.50000000  0.12723929
   0.00000000  0.50000000  0.25613312
   0.00000000  0.50000000  0.39066397
   0.00000000  0.00000000  0.06361964
   0.00000000  0.00000000  0.19085893
   0.00000000  0.00000000  0.31947139
   0.00000000  0.00000000  0.46218454
   0.00000000  0.00000000  0.50883305
Direct configuration=    36
   0.50000000  0.50000000  0.06361964
   0.50000000  0.50000000  0.19085893
   0.50000000  0.50000000  0.31610607
   0.50000000  0.50000000  0.44561151
   0.00000000  0.00000000  0.00000000
   0.00000000  0.00000000  0.12723929
   0.00000000  0.00000000  0.25405235
   0.00000000  0.00000000  0.38107167
   0.50000000  0.00000000  0.00000000
   0.50000000  0.00000000  0.12723929
   0.50000000  0.00000000  0.25612280
   0.50000000  0.00000000  0.39065576
   0.00000000  0.50000000  0.00000000
   0.00000000  0.50000000  0.12723929
   0.00000000  0.50000000  0.25612280
   0.00000000  0.50000000  0.39065576
   0.00000000  0.00000000  0.06361964
   0.00000000  0.00000000  0.19085893
   0.00000000  0.00000000  0.31946452
   0.00000000  0.00000000  0.46216956
   0.00000000  0.00000000  0.50882745
Direct configuration=    37
   0.50000000  0.50000000  0.06361964