unknown system                          
           1
     3.886808    0.000000    0.000000
     0.000000    3.886808    0.000000
     0.000000    0.000000   30.547233
   Sr   Fe   O 
   4   4  13
Direct configuration=     1
   0.50000000  0.50000000  0.06361964
   0.50000000  0.50000000  0.19085893
   0.50000000  0.50000000  0.31631642
   0.50000000  0.50000000  0.44966671
   0.00000000  0.00000000  0.00000000
   0.00000000  0.00000000  0.12723929
   0.00000000  0.00000000  0.25476556
   0.00000000  0.00000000  0.38415280
   0.50000000  0.00000000  0.00000000
   0.50000000  0.00000000  0.12723929
   0.50000000  0.00000000  0.25703167
   0.50000000  0.00000000  0.39704554
   0.00000000  0.50000000  0.00000000
   0.00000000  0.50000000  0.12723929
   0.00000000  0.50000000  0.25703167
   0.00000000  0.50000000  0.39704554
   0.00000000  0.00000000  0.06361964
   0.00000000  0.00000000  0.19085893
   0.00000000  0.00000000  0.32276534
   0.00000000  0.00000000  0.47170950
   0.00000000  0.00000000  0.51802352
Direct configuration=     2
   0.50000000  0.50000000  0.06361964
   0.50000000  0.50000000  0.19085893
   0.50000000  0.50000000  0.31645232
   0.50000000  0.50000000  0.44891227
   0.00000000  0.00000000  0.00000000
   0.00000000  0.00000000  0.12723929
   0.00000000  0.00000000  0.25534253
   0.00000000  0.00000000  0.38460113
   0.50000000  0.00000000  0.00000000
   0.50000000  0.00000000  0.12723929
   0.50000000  0.00000000  0.25673449
   0.50000000  0.00000000  0.39680428
   0.00000000  0.50000000  0.00000000
   0.00000000  0.50000000  0.12723929
   0.00000000  0.50000000  0.25673449
   0.00000000  0.50000000  0.39680428
   0.00000000  0.00000000  0.06361964
   0.00000000  0.00000000  0.19085893
   0.00000000  0.00000000  0.32231768
   0.00000000  0.00000000  0.47543440
   0.00000000  0.00000000  0.51584687
Direct configuration=     3
   0.50000000  0.50000000  0.06361964
   0.50000000  0.50000000  0.19085893
   0.50000000  0.50000000  0.31633513
   0.50000000  0.50000000  0.44956284
   0.00000000  0.00000000  0.00000000
   0.00000000  0.00000000  0.12723929
   0.00000000  0.00000000  0.25484500
   0.00000000  0.00000000  0.38421452
   0.50000000  0.00000000  0.00000000
   0.50000000  0.00000000  0.12723929
   0.50000000  0.00000000  0.25699076
   0.50000000  0.00000000  0.39701232
   0.00000000  0.50000000  0.00000000
   0.00000000  0.50000000  0.12723929
   0.00000000  0.50000000  0.25699076
   0.00000000  0.50000000  0.39701232
   0.00000000  0.00000000  0.06361964
   0.00000000  0.00000000  0.19085893
   0.00000000  0.00000000  0.32270371
   0.00000000  0.00000000  0.47222234
   0.00000000  0.00000000  0.51772384
Direct configuration=     4
   0.50000000  0.50000000  0.06361964
   0.50000000  0.50000000  0.19085893
   0.50000000  0.50000000  0.31632926
   0.50000000  0.50000000  0.44959544
   0.00000000  0.00000000  0.00000000
   0.00000000  0.00000000  0.12723929
   0.00000000  0.00000000  0.25482007
   0.00000000  0.00000000  0.38419515
   0.50000000  0.00000000  0.00000000
   0.50000000  0.00000000  0.12723929
   0.50000000  0.00000000  0.25700360
   0.50000000  0.00000000  0.39702275
   0.00000000  0.50000000  0.00000000
   0.00000000  0.50000000  0.12723929
   0.00000000  0.50000000  0.25700360
   0.00000000  0.50000000  0.39702275
   0.00000000  0.00000000  0.06361964
   0.00000000  0.00000000  0.19085893
   0.00000000  0.00000000  0.32272305
   0.00000000  0.00000000  0.47206141
   0.00000000  0.00000000  0.51781788
Direct configuration=     5
   0.50000000  0.50000000  0.06361964
   0.50000000  0.50000000  0.19085893
   0.50000000  0.50000000  0.31632284
   0.50000000  0.50000000  0.44963107
   0.00000000  0.00000000  0.00000000
   0.00000000  0.00000000  0.12723929
   0.00000000  0.00000000  0.25479281
   0.00000000  0.00000000  0.38417397
   0.50000000  0.00000000  0.00000000
   0.50000000  0.00000000  0.12723929
   0.50000000  0.00000000  0.25701764
   0.50000000  0.00000000  0.39703414
   0.00000000  0.50000000  0.00000000
   0.00000000  0.50000000  0.12723929
   0.00000000  0.50000000  0.25701764
   0.00000000  0.50000000  0.39703414
   0.00000000  0.00000000  0.06361964
   0.00000000  0.00000000  0.19085893
   0.00000000  0.00000000  0.32274419
   0.00000000  0.00000000  0.47188546
   0.00000000  0.00000000  0.51792070
Direct configuration=     6
   0.50000000  0.50000000  0.06361964
   0.50000000  0.50000000  0.19085893
   0.50000000  0.50000000  0.31631963
   0.50000000  0.50000000  0.44964886
   0.00000000  0.00000000  0.00000000
   0.00000000  0.00000000  0.12723929
   0.00000000  0.00000000  0.25477921
   0.00000000  0.00000000  0.38416340
   0.50000000  0.00000000  0.00000000
   0.50000000  0.00000000  0.12723929
   0.50000000  0.00000000  0.25702464
   0.50000000  0.00000000  0.39703983
   0.00000000  0.50000000  0.00000000
   0.00000000  0.50000000  0.12723929
   0.00000000  0.50000000  0.25702464
   0.00000000  0.50000000  0.39703983
   0.00000000  0.00000000  0.06361964
   0.00000000  0.00000000  0.19085893
   0.00000000  0.00000000  0.32275475
   0.00000000  0.00000000  0.47179762
   0.00000000  0.00000000  0.51797203
Direct configuration=     7
   0.50000000  0.50000000  0.06361964
   0.50000000  0.50000000  0.19085893
   0.50000000  0.50000000  0.31631803
   0.50000000  0.50000000  0.44965779
   0.00000000  0.00000000  0.00000000
   0.00000000  0.00000000  0.12723929
   0.00000000  0.00000000  0.25477238
   0.00000000  0.00000000  0.38415810
   0.50000000  0.00000000  0.00000000
   0.50000000  0.00000000  0.12723929
   0.50000000  0.00000000  0.25702816
   0.50000000  0.00000000  0.39704269
   0.00000000  0.50000000  0.00000000
   0.00000000  0.50000000  0.12723929
   0.00000000  0.50000000  0.25702816
   0.00000000  0.50000000  0.39704269
   0.00000000  0.00000000  0.06361964
   0.00000000  0.00000000  0.19085893
   0.00000000  0.00000000  0.32276004
   0.00000000  0.00000000  0.47175356
   0.00000000  0.00000000  0.51799778
Direct configuration=     8
   0.50000000  0.50000000  0.06361964
   0.50000000  0.50000000  0.19085893
   0.50000000  0.50000000  0.31631722
   0.50000000  0.50000000  0.44966225
   0.00000000  0.00000000  0.00000000
   0.00000000  0.00000000  0.12723929
   0.00000000  0.00000000  0.25476897
   0.00000000  0.00000000  0.38415545
   0.50000000  0.00000000  0.00000000
   0.50000000  0.00000000  0.12723929
   0.50000000  0.00000000  0.25702992
   0.50000000  0.00000000  0.39704411
   0.00000000  0.50000000  0.00000000
   0.00000000  0.50000000  0.12723929
   0.00000000  0.50000000  0.25702992
   0.00000000  0.50000000  0.39704411
   0.00000000  0.00000000  0.06361964
   0.00000000  0.00000000  0.19085893
   0.00000000  0.00000000  0.32276269
   0.00000000  0.00000000  0.47173153
   0.00000000  0.00000000  0.51801065
Direct configuration=     9
   0.50000000  0.50000000  0.06361964
   0.50000000  0.50000000  0.19085893
   0.50000000  0.50000000  0.31631686
   0.50000000  0.50000000  0.44966427
   0.00000000  0.00000000  0.00000000
   0.00000000  0.00000000  0.12723929
   0.00000000  0.00000000  0.25476743
   0.00000000  0.00000000  0.38415425
   0.50000000  0.00000000  0.00000000
   0.50000000  0.00000000  0.12723929
   0.50000000  0.00000000  0.25703071
   0.50000000  0.00000000  0.39704476
   0.00000000  0.50000000  0.00000000
   0.00000000  0.50000000  0.12723929
   0.00000000  0.50000000  0.25703071
   0.00000000  0.50000000  0.39704476
   0.00000000  0.00000000  0.06361964
   0.00000000  0.00000000  0.19085893
   0.00000000  0.00000000  0.32276389
   0.00000000  0.00000000  0.47172157
   0.00000000  0.00000000  0.51801647
Direct configuration=    10
   0.50000000  0.50000000  0.06361964
   0.50000000  0.50000000  0.19085893
   0.50000000  0.50000000  0.31631664
   0.50000000  0.50000000  0.44966549
   0.00000000  0.00000000  0.00000000
   0.00000000  0.00000000  0.12723929
   0.00000000  0.00000000  0.25476649
   0.00000000  0.00000000  0.38415352
   0.50000000  0.00000000  0.00000000
   0.50000000  0.00000000  0.12723929
   0.50000000  0.00000000  0.25703119
   0.50000000  0.00000000  0.39704515
   0.00000000  0.50000000  0.00000000
   0.00000000  0.50000000  0.12723929
   0.00000000  0.50000000  0.25703119
   0.00000000  0.50000000  0.39704515
   0.00000000  0.00000000  0.06361964
   0.00000000  0.00000000  0.19085893
   0.00000000  0.00000000  0.32276461
   0.00000000  0.00000000  0.47171554
   0.00000000  0.00000000  0.51802000
Direct configuration=    11
   0.50000000  0.50000000  0.06361964
   0.50000000  0.50000000  0.19085893
   0.50000000  0.50000000  0.31631653
   0.50000000  0.50000000  0.44966610
   0.00000000  0.00000000  0.00000000
   0.00000000  0.00000000  0.12723929
   0.00000000  0.00000000  0.25476603
   0.00000000  0.00000000  0.38415316
   0.50000000  0.00000000  0.00000000
   0.50000000  0.00000000  0.12723929
   0.50000000  0.00000000  0.25703143
   0.50000000  0.00000000  0.39704534
   0.00000000  0.50000000  0.00000000
   0.00000000  0.50000000  0.12723929
   0.00000000  0.50000000  0.25703143
   0.00000000  0.50000000  0.39704534
   0.00000000  0.00000000  0.06361964
   0.00000000  0.00000000  0.19085893
   0.00000000  0.00000000  0.32276498
   0.00000000  0.00000000  0.47171252
   0.00000000  0.00000000  0.51802176
Direct configuration=    12
   0.50000000  0.50000000  0.06361964
   0.50000000  0.50000000  0.19085893
   0.50000000  0.50000000  0.31631647
   0.50000000  0.50000000  0.44966641
   0.00000000  0.00000000  0.00000000
   0.00000000  0.00000000  0.12723929
   0.00000000  0.00000000  0.25476579
   0.00000000  0.00000000  0.38415298
   0.50000000  0.00000000  0.00000000
   0.50000000  0.00000000  0.12723929
   0.50000000  0.00000000  0.25703155
   0.50000000  0.00000000  0.39704544
   0.00000000  0.50000000  0.00000000
   0.00000000  0.50000000  0.12723929
   0.00000000  0.50000000  0.25703155
   0.00000000  0.50000000  0.39704544
   0.00000000  0.00000000  0.06361964
   0.00000000  0.00000000  0.19085893
   0.00000000  0.00000000  0.32276516
   0.00000000  0.00000000  0.47171101
   0.00000000  0.00000000  0.51802264
Direct configuration=    13
   0.50000000  0.50000000  0.06361964
   0.50000000  0.50000000  0.19085893
   0.50000000  0.50000000  0.31631645
   0.50000000  0.50000000  0.44966656
   0.00000000  0.00000000  0.00000000
   0.00000000  0.00000000  0.12723929
   0.00000000  0.00000000  0.25476568
   0.00000000  0.00000000  0.38415289
   0.50000000  0.00000000  0.00000000
   0.50000000  0.00000000  0.12723929
   0.50000000  0.00000000  0.25703161
   0.50000000  0.00000000  0.39704549
   0.00000000  0.50000000  0.00000000
   0.00000000  0.50000000  0.12723929
   0.00000000  0.50000000  0.25703161
   0.00000000  0.50000000  0.39704549
   0.00000000  0.00000000  0.06361964
   0.00000000  0.00000000  0.19085893
   0.00000000  0.00000000  0.32276525
   0.00000000  0.00000000  0.47171026
   0.00000000  0.00000000  0.51802308
Direct configuration=    14
   0.50000000  0.50000000  0.06361964
   0.50000000  0.50000000  0.19085893
   0.50000000  0.50000000  0.31631647
   0.50000000  0.50000000  0.44966643
   0.00000000  0.00000000  0.00000000
   0.00000000  0.00000000  0.12723929
   0.00000000  0.00000000  0.25476578
   0.00000000  0.00000000  0.38415296
   0.50000000  0.00000000  0.00000000
   0.50000000  0.00000000  0.12723929
   0.50000000  0.00000000  0.25703156
   0.50000000  0.00000000  0.39704545
   0.00000000  0.50000000  0.00000000
   0.00000000  0.50000000  0.12723929
   0.00000000  0.50000000  0.25703156
   0.00000000  0.50000000  0.39704545
   0.00000000  0.00000000  0.06361964
   0.00000000  0.00000000  0.19085893
   0.00000000  0.00000000  0.32276517
   0.00000000  0.00000000  0.47171091
   0.00000000  0.00000000  0.51802270
Direct configuration=    15
   0.50000000  0.50000000  0.06361964
   0.50000000  0.50000000  0.19085893
   0.50000000  0.50000000  0.31631647
   0.50000000  0.50000000  0.44966642
   0.00000000  0.00000000  0.00000000
   0.00000000  0.00000000  0.12723929
   0.00000000  0.00000000  0.25476578
   0.00000000  0.00000000  0.38415297
   0.50000000  0.00000000  0.00000000
   0.50000000  0.00000000  0.12723929
   0.50000000  0.00000000  0.25703156
   0.50000000  0.00000000  0.39704545
   0.00000000  0.50000000  0.00000000
   0.00000000  0.50000000  0.12723929
   0.00000000  0.50000000  0.25703156
   0.00000000  0.50000000  0.39704545
   0.00000000  0.00000000  0.06361964
   0.00000000  0.00000000  0.19085893
   0.00000000  0.00000000  0.32276517
   0.00000000  0.00000000  0.47171094
   0.00000000  0.00000000  0.51802268
Direct configuration=    16
   0.50000000  0.50000000  0.06361964
   0.50000000  0.50000000  0.19085893
   0.50000000  0.50000000  0.31631647
   0.50000000  0.50000000  0.44966641
   0.00000000  0.00000000  0.00000000
   0.00000000  0.00000000  0.12723929
   0.00000000  0.00000000  0.25476579
   0.00000000  0.00000000  0.38415297
   0.50000000  0.00000000  0.00000000
   0.50000000  0.00000000  0.12723929
   0.50000000  0.00000000  0.25703156
   0.50000000  0.00000000  0.39704544
   0.00000000  0.50000000  0.00000000
   0.00000000  0.50000000  0.12723929
   0.00000000  0.50000000  0.25703156
   0.00000000  0.50000000  0.39704544
   0.00000000  0.00000000  0.06361964
   0.00000000  0.00000000  0.19085893
   0.00000000  0.00000000  0.32276516
   0.00000000  0.00000000  0.47171098
   0.00000000  0.00000000  0.51802266
Direct configuration=    17
   0.50000000  0.50000000  0.06361964
   0.50000000  0.50000000  0.19085893
   0.50000000  0.50000000  0.31631647
   0.50000000  0.50000000  0.44966641
   0.00000000  0.00000000  0.00000000
   0.00000000  0.00000000  0.12723929
   0.00000000  0.00000000  0.25476579
   0.00000000  0.00000000  0.38415298
   0.50000000  0.00000000  0.00000000
   0.50000000  0.00000000  0.12723929
   0.50000000  0.00000000  0.25703155
   0.50000000  0.00000000  0.39704544
   0.00000000  0.50000000  0.00000000
   0.00000000  0.50000000  0.12723929
   0.00000000  0.50000000  0.25703155
   0.00000000  0.50000000  0.39704544
   0.00000000  0.00000000  0.06361964
   0.00000000  0.00000000  0.19085893
   0.00000000  0.00000000  0.32276516
   0.00000000  0.00000000  0.47171100
   0.00000000  0.00000000  0.51802265
Direct configuration=    18
   0.50000000  0.50000000  0.06361964
   0.50000000  0.50000000  0.19085893
   0.50000000  0.50000000  0.31631647
   0.50000000  0.50000000  0.44966641
   0.00000000  0.00000000  0.00000000
   0.00000000  0.00000000  0.12723929
   0.00000000  0.00000000  0.25476579
   0.00000000  0.00000000  0.38415298
   0.50000000  0.00000000  0.00000000
   0.50000000  0.00000000  0.12723929
   0.50000000  0.00000000  0.25703155
   0.50000000  0.00000000  0.39704544
   0.00000000  0.50000000  0.00000000
   0.00000000  0.50000000  0.12723929
   0.00000000  0.50000000  0.25703155
   0.00000000  0.50000000  0.39704544
   0.00000000  0.00000000  0.06361964
   0.00000000  0.00000000  0.19085893
   0.00000000  0.00000000  0.32276516
   0.00000000  0.00000000  0.47171101
   0.00000000  0.00000000  0.51802264
Direct configuration=    19
   0.50000000  0.50000000  0.06361964
   0.50000000  0.50000000  0.19085893
   0.50000000  0.50000000  0.31631647
   0.50000000  0.50000000  0.44966641
   0.00000000  0.00000000  0.00000000
   0.00000000  0.00000000  0.12723929
   0.00000000  0.00000000  0.25476579
   0.00000000  0.00000000  0.38415298
   0.50000000  0.00000000  0.00000000
   0.50000000  0.00000000  0.12723929
   0.50000000  0.00000000  0.25703155
   0.50000000  0.00000000  0.39704544
   0.00000000  0.50000000  0.00000000
   0.00000000  0.50000000  0.12723929
   0.00000000  0.50000000  0.25703155
   0.00000000  0.50000000  0.39704544
   0.00000000  0.00000000  0.06361964
   0.00000000  0.00000000  0.19085893
   0.00000000  0.00000000  0.32276516
   0.00000000  0.00000000  0.47171101
   0.00000000  0.00000000  0.51802264
