   5   5   1   0
  0.1223411E+02  0.3940162E-09  0.3940162E-09  0.3940162E-09  0.5000000E-15
  1.000000000000000E-004
  CAR 
 unknown system                          
     16.14963944    -45.55650599  301      7.87645425      1.00000000
    -45.557  0.0000E+00  0.0000E+00  0.0000E+00  0.0000E+00
    -45.351  0.0000E+00  0.0000E+00  0.0000E+00  0.0000E+00
    -45.145  0.0000E+00  0.0000E+00  0.0000E+00  0.0000E+00
    -44.939  0.0000E+00  0.0000E+00  0.0000E+00  0.0000E+00
    -44.734  0.0000E+00  0.0000E+00  0.0000E+00  0.0000E+00
    -44.528  0.0000E+00  0.0000E+00  0.0000E+00  0.0000E+00
    -44.322  0.0000E+00  0.0000E+00  0.0000E+00  0.0000E+00
    -44.117  0.0000E+00  0.0000E+00  0.0000E+00  0.0000E+00
    -43.911  0.0000E+00  0.0000E+00  0.0000E+00  0.0000E+00
    -43.705  0.0000E+00  0.0000E+00  0.0000E+00  0.0000E+00
    -43.500  0.0000E+00  0.0000E+00  0.0000E+00  0.0000E+00
    -43.294  0.0000E+00  0.0000E+00  0.0000E+00  0.0000E+00
    -43.088  0.0000E+00  0.0000E+00  0.0000E+00  0.0000E+00
    -42.883  0.0000E+00  0.0000E+00  0.0000E+00  0.0000E+00
    -42.677  0.0000E+00  0.0000E+00  0.3030E-01  0.0000E+00
    -42.471  0.0000E+00  0.0000E+00  0.3030E-01  0.0000E+00
    -42.266  0.0000E+00  0.0000E+00  0.3030E-01  0.0000E+00
    -42.060  0.0000E+00  0.0000E+00  0.3030E-01  0.0000E+00
    -41.854  0.0000E+00  0.0000E+00  0.3030E-01  0.0000E+00
    -41.648  0.0000E+00  0.0000E+00  0.3030E-01  0.0000E+00
    -41.443  0.0000E+00  0.0000E+00  0.3030E-01  0.0000E+00
    -41.237  0.0000E+00  0.0000E+00  0.3030E-01  0.0000E+00
    -41.031  0.0000E+00  0.0000E+00  0.3030E-01  0.0000E+00
    -40.826  0.0000E+00  0.0000E+00  0.3030E-01  0.0000E+00
    -40.620  0.0000E+00  0.0000E+00  0.3030E-01  0.0000E+00
    -40.414  0.0000E+00  0.0000E+00  0.3030E-01  0.0000E+00
    -40.209  0.0000E+00  0.0000E+00  0.3030E-01  0.0000E+00
    -40.003  0.0000E+00  0.0000E+00  0.3030E-01  0.0000E+00
    -39.797  0.0000E+00  0.0000E+00  0.3030E-01  0.0000E+00
    -39.592  0.0000E+00  0.0000E+00  0.3030E-01  0.0000E+00
    -39.386  0.0000E+00  0.0000E+00  0.3030E-01  0.0000E+00
    -39.180  0.0000E+00  0.0000E+00  0.3030E-01  0.0000E+00
    -38.975  0.0000E+00  0.0000E+00  0.3030E-01  0.0000E+00
    -38.769  0.0000E+00  0.0000E+00  0.3030E-01  0.0000E+00
    -38.563  0.0000E+00  0.0000E+00  0.3030E-01  0.3030E-01
    -38.357  0.0000E+00  0.0000E+00  0.3030E-01  0.3030E-01
    -38.152  0.0000E+00  0.0000E+00  0.3030E-01  0.3030E-01
    -37.946  0.0000E+00  0.0000E+00  0.3030E-01  0.3030E-01
    -37.740  0.0000E+00  0.0000E+00  0.3030E-01  0.3030E-01
    -37.535  0.0000E+00  0.0000E+00  0.3030E-01  0.3030E-01
    -37.329  0.0000E+00  0.0000E+00  0.3030E-01  0.3030E-01
    -37.123  0.0000E+00  0.0000E+00  0.3030E-01  0.3030E-01
    -36.918  0.0000E+00  0.0000E+00  0.3030E-01  0.3030E-01
    -36.712  0.0000E+00  0.0000E+00  0.3030E-01  0.3030E-01
    -36.506  0.0000E+00  0.0000E+00  0.3030E-01  0.3030E-01
    -36.301  0.0000E+00  0.0000E+00  0.3030E-01  0.3030E-01
    -36.095  0.0000E+00  0.0000E+00  0.3030E-01  0.3030E-01
    -35.889  0.0000E+00  0.0000E+00  0.3030E-01  0.3030E-01
    -35.684  0.0000E+00  0.0000E+00  0.3030E-01  0.3030E-01
    -35.478  0.0000E+00  0.0000E+00  0.3030E-01  0.3030E-01
    -35.272  0.0000E+00  0.0000E+00  0.3030E-01  0.3030E-01
    -35.066  0.0000E+00  0.0000E+00  0.3030E-01  0.3030E-01
    -34.861  0.0000E+00  0.0000E+00  0.3030E-01  0.3030E-01
    -34.655  0.0000E+00  0.0000E+00  0.3030E-01  0.3030E-01
    -34.449  0.0000E+00  0.0000E+00  0.3030E-01  0.3030E-01
    -34.244  0.0000E+00  0.0000E+00  0.3030E-01  0.3030E-01
    -34.038  0.0000E+00  0.0000E+00  0.3030E-01  0.3030E-01
    -33.832  0.0000E+00  0.0000E+00  0.3030E-01  0.3030E-01
    -33.627  0.0000E+00  0.0000E+00  0.3030E-01  0.3030E-01
    -33.421  0.0000E+00  0.0000E+00  0.3030E-01  0.3030E-01
    -33.215  0.0000E+00  0.0000E+00  0.3030E-01  0.3030E-01
    -33.010  0.0000E+00  0.0000E+00  0.3030E-01  0.3030E-01
    -32.804  0.0000E+00  0.0000E+00  0.3030E-01  0.3030E-01
    -32.598  0.0000E+00  0.0000E+00  0.3030E-01  0.3030E-01
    -32.393  0.0000E+00  0.0000E+00  0.3030E-01  0.3030E-01
    -32.187  0.0000E+00  0.0000E+00  0.3030E-01  0.3030E-01
    -31.981  0.0000E+00  0.0000E+00  0.3030E-01  0.3030E-01
    -31.775  0.0000E+00  0.0000E+00  0.3030E-01  0.3030E-01
    -31.570  0.0000E+00  0.0000E+00  0.3030E-01  0.3030E-01
    -31.364  0.0000E+00  0.0000E+00  0.3030E-01  0.3030E-01
    -31.158  0.0000E+00  0.0000E+00  0.3030E-01  0.3030E-01
    -30.953  0.0000E+00  0.0000E+00  0.3030E-01  0.3030E-01
    -30.747  0.0000E+00  0.0000E+00  0.3030E-01  0.3030E-01
    -30.541  0.0000E+00  0.0000E+00  0.3030E-01  0.3030E-01
    -30.336  0.0000E+00  0.0000E+00  0.3030E-01  0.3030E-01
    -30.130  0.0000E+00  0.0000E+00  0.3030E-01  0.3030E-01
    -29.924  0.0000E+00  0.0000E+00  0.3030E-01  0.3030E-01
    -29.719  0.0000E+00  0.0000E+00  0.3030E-01  0.3030E-01
    -29.513  0.0000E+00  0.0000E+00  0.3030E-01  0.3030E-01
    -29.307  0.0000E+00  0.0000E+00  0.3030E-01  0.3030E-01
    -29.102  0.0000E+00  0.0000E+00  0.3030E-01  0.3030E-01
    -28.896  0.0000E+00  0.0000E+00  0.3030E-01  0.3030E-01
    -28.690  0.0000E+00  0.0000E+00  0.3030E-01  0.3030E-01
    -28.484  0.0000E+00  0.0000E+00  0.3030E-01  0.3030E-01
    -28.279  0.0000E+00  0.0000E+00  0.3030E-01  0.3030E-01
    -28.073  0.0000E+00  0.0000E+00  0.3030E-01  0.3030E-01
    -27.867  0.0000E+00  0.0000E+00  0.3030E-01  0.3030E-01
    -27.662  0.0000E+00  0.0000E+00  0.3030E-01  0.3030E-01
    -27.456  0.0000E+00  0.0000E+00  0.3030E-01  0.3030E-01
    -27.250  0.0000E+00  0.0000E+00  0.3030E-01  0.3030E-01
    -27.045  0.0000E+00  0.0000E+00  0.3030E-01  0.3030E-01
    -26.839  0.0000E+00  0.0000E+00  0.3030E-01  0.3030E-01
    -26.633  0.0000E+00  0.0000E+00  0.3030E-01  0.3030E-01
    -26.428  0.0000E+00  0.0000E+00  0.3030E-01  0.3030E-01
    -26.222  0.0000E+00  0.0000E+00  0.3030E-01  0.3030E-01
    -26.016  0.0000E+00  0.0000E+00  0.3030E-01  0.3030E-01
    -25.811  0.0000E+00  0.0000E+00  0.3030E-01  0.3030E-01
    -25.605  0.0000E+00  0.0000E+00  0.3030E-01  0.3030E-01
    -25.399  0.0000E+00  0.0000E+00  0.3030E-01  0.3030E-01
    -25.193  0.0000E+00  0.0000E+00  0.3030E-01  0.3030E-01
    -24.988  0.1122E+00  0.1382E+00  0.3840E-01  0.3749E-01
    -24.782  0.0000E+00  0.0000E+00  0.4040E-01  0.4040E-01
    -24.576  0.0000E+00  0.0000E+00  0.4040E-01  0.4040E-01
    -24.371  0.0000E+00  0.0000E+00  0.4040E-01  0.4040E-01
    -24.165  0.0000E+00  0.0000E+00  0.4040E-01  0.4040E-01
    -23.959  0.0000E+00  0.0000E+00  0.4040E-01  0.4040E-01
    -23.754  0.0000E+00  0.0000E+00  0.4040E-01  0.4040E-01
    -23.548  0.0000E+00  0.0000E+00  0.4040E-01  0.4040E-01
    -23.342  0.0000E+00  0.0000E+00  0.4040E-01  0.4040E-01
    -23.137  0.0000E+00  0.0000E+00  0.4040E-01  0.4040E-01
    -22.931  0.0000E+00  0.0000E+00  0.4040E-01  0.4040E-01
    -22.725  0.0000E+00  0.0000E+00  0.4040E-01  0.4040E-01
    -22.520  0.0000E+00  0.0000E+00  0.4040E-01  0.4040E-01
    -22.314  0.0000E+00  0.0000E+00  0.4040E-01  0.4040E-01
    -22.108  0.0000E+00  0.0000E+00  0.4040E-01  0.4040E-01
    -21.902  0.0000E+00  0.0000E+00  0.4040E-01  0.4040E-01
    -21.697  0.0000E+00  0.0000E+00  0.4040E-01  0.4040E-01
    -21.491  0.0000E+00  0.0000E+00  0.4040E-01  0.4040E-01
    -21.285  0.0000E+00  0.0000E+00  0.4040E-01  0.4040E-01
    -21.080  0.0000E+00  0.0000E+00  0.4040E-01  0.4040E-01
    -20.874  0.0000E+00  0.0000E+00  0.4040E-01  0.4040E-01
    -20.668  0.0000E+00  0.0000E+00  0.4040E-01  0.4040E-01
    -20.463  0.0000E+00  0.0000E+00  0.4040E-01  0.4040E-01
    -20.257  0.0000E+00  0.0000E+00  0.4040E-01  0.4040E-01
    -20.051  0.0000E+00  0.0000E+00  0.4040E-01  0.4040E-01
    -19.846  0.0000E+00  0.0000E+00  0.4040E-01  0.4040E-01
    -19.640  0.0000E+00  0.0000E+00  0.4040E-01  0.4040E-01
    -19.434  0.0000E+00  0.0000E+00  0.4040E-01  0.4040E-01
    -19.229  0.0000E+00  0.0000E+00  0.4040E-01  0.4040E-01
    -19.023  0.0000E+00  0.0000E+00  0.4040E-01  0.4040E-01
    -18.817  0.0000E+00  0.0000E+00  0.4040E-01  0.4040E-01
    -18.611  0.0000E+00  0.0000E+00  0.4040E-01  0.4040E-01
    -18.406  0.0000E+00  0.0000E+00  0.4040E-01  0.4040E-01
    -18.200  0.0000E+00  0.0000E+00  0.4040E-01  0.4040E-01
    -17.994  0.0000E+00  0.0000E+00  0.4040E-01  0.4040E-01
    -17.789  0.0000E+00  0.0000E+00  0.4040E-01  0.4040E-01
    -17.583  0.0000E+00  0.0000E+00  0.4040E-01  0.4040E-01
    -17.377  0.0000E+00  0.0000E+00  0.4040E-01  0.4040E-01
    -17.172  0.0000E+00  0.0000E+00  0.4040E-01  0.4040E-01
    -16.966  0.0000E+00  0.0000E+00  0.4040E-01  0.4040E-01
    -16.760  0.0000E+00  0.0000E+00  0.4040E-01  0.4040E-01
    -16.555  0.0000E+00  0.0000E+00  0.4040E-01  0.4040E-01
    -16.349  0.0000E+00  0.0000E+00  0.4040E-01  0.4040E-01
    -16.143  0.0000E+00  0.0000E+00  0.4040E-01  0.4040E-01
    -15.938  0.0000E+00  0.0000E+00  0.4040E-01  0.4040E-01
    -15.732  0.0000E+00  0.0000E+00  0.4040E-01  0.4040E-01
    -15.526  0.0000E+00  0.0000E+00  0.4040E-01  0.4040E-01
    -15.320  0.0000E+00  0.0000E+00  0.4040E-01  0.4040E-01
    -15.115  0.0000E+00  0.0000E+00  0.4040E-01  0.4040E-01
    -14.909  0.0000E+00  0.0000E+00  0.4040E-01  0.4040E-01
    -14.703  0.0000E+00  0.0000E+00  0.4040E-01  0.4040E-01
    -14.498  0.0000E+00  0.0000E+00  0.4040E-01  0.4040E-01
    -14.292  0.0000E+00  0.0000E+00  0.4040E-01  0.4040E-01
    -14.086  0.0000E+00  0.0000E+00  0.4040E-01  0.4040E-01
    -13.881  0.0000E+00  0.0000E+00  0.4040E-01  0.4040E-01
    -13.675  0.0000E+00  0.0000E+00  0.4040E-01  0.4040E-01
    -13.469  0.0000E+00  0.0000E+00  0.4040E-01  0.4040E-01
    -13.264  0.0000E+00  0.0000E+00  0.4040E-01  0.4040E-01
    -13.058  0.0000E+00  0.0000E+00  0.4040E-01  0.4040E-01
    -12.852  0.0000E+00  0.0000E+00  0.4040E-01  0.4040E-01
    -12.647  0.0000E+00  0.0000E+00  0.4040E-01  0.4040E-01
    -12.441  0.0000E+00  0.0000E+00  0.4040E-01  0.4040E-01
    -12.235  0.0000E+00  0.0000E+00  0.4040E-01  0.4040E-01
    -12.030  0.0000E+00  0.0000E+00  0.4040E-01  0.4040E-01
    -11.824  0.8553E-02  0.4967E-02  0.4111E-01  0.4064E-01
    -11.618  0.1485E-01  0.3305E-01  0.4534E-01  0.4363E-01
    -11.412  0.8929E-02  0.1010E-01  0.4765E-01  0.4710E-01
    -11.207  0.5458E-02  0.6703E-02  0.4931E-01  0.4899E-01
    -11.001  0.8008E-02  0.2929E-02  0.5036E-01  0.4996E-01
    -10.795  0.4832E-01  0.1892E-01  0.5445E-01  0.5246E-01
    -10.590  0.4174E-01  0.1924E-01  0.6008E-01  0.5818E-01
    -10.384  0.2165E-01  0.2932E-01  0.7045E-01  0.6435E-01
    -10.178  0.0000E+00  0.0000E+00  0.7071E-01  0.7071E-01
     -9.973  0.0000E+00  0.0000E+00  0.7071E-01  0.7071E-01
     -9.767  0.0000E+00  0.0000E+00  0.7071E-01  0.7071E-01
     -9.561  0.0000E+00  0.0000E+00  0.7071E-01  0.7071E-01
     -9.356  0.0000E+00  0.0000E+00  0.7071E-01  0.7071E-01
     -9.150  0.0000E+00  0.0000E+00  0.7071E-01  0.7071E-01
     -8.944  0.3794E-02  0.0000E+00  0.7090E-01  0.7071E-01
     -8.739  0.1446E-01  0.1284E-01  0.7293E-01  0.7255E-01
     -8.533  0.3213E-01  0.3936E-01  0.8252E-01  0.8169E-01
     -8.327  0.3801E-01  0.4178E-01  0.9038E-01  0.8943E-01
     -8.121  0.4814E-01  0.4859E-01  0.9705E-01  0.9586E-01
     -7.916  0.0000E+00  0.6691E-02  0.1010E+00  0.1007E+00
     -7.710  0.0000E+00  0.0000E+00  0.1010E+00  0.1010E+00
     -7.504  0.0000E+00  0.0000E+00  0.1010E+00  0.1010E+00
     -7.299  0.0000E+00  0.0000E+00  0.1010E+00  0.1010E+00
     -7.093  0.0000E+00  0.0000E+00  0.1010E+00  0.1010E+00
     -6.887  0.0000E+00  0.0000E+00  0.1010E+00  0.1010E+00
     -6.682  0.0000E+00  0.0000E+00  0.1010E+00  0.1010E+00
     -6.476  0.0000E+00  0.0000E+00  0.1010E+00  0.1010E+00
     -6.270  0.0000E+00  0.0000E+00  0.1010E+00  0.1010E+00
     -6.065  0.0000E+00  0.0000E+00  0.1010E+00  0.1010E+00
     -5.859  0.0000E+00  0.0000E+00  0.1010E+00  0.1010E+00
     -5.653  0.0000E+00  0.0000E+00  0.1010E+00  0.1010E+00
     -5.448  0.0000E+00  0.0000E+00  0.1010E+00  0.1010E+00
     -5.242  0.0000E+00  0.0000E+00  0.1010E+00  0.1010E+00
     -5.036  0.0000E+00  0.0000E+00  0.1010E+00  0.1010E+00
     -4.830  0.0000E+00  0.0000E+00  0.1010E+00  0.1010E+00
     -4.625  0.0000E+00  0.0000E+00  0.1010E+00  0.1010E+00
     -4.419  0.0000E+00  0.0000E+00  0.1010E+00  0.1010E+00
     -4.213  0.0000E+00  0.0000E+00  0.1010E+00  0.1010E+00
     -4.008  0.0000E+00  0.0000E+00  0.1010E+00  0.1010E+00
     -3.802  0.0000E+00  0.0000E+00  0.1010E+00  0.1010E+00
     -3.596  0.0000E+00  0.0000E+00  0.1010E+00  0.1010E+00
     -3.391  0.0000E+00  0.0000E+00  0.1010E+00  0.1010E+00
     -3.185  0.0000E+00  0.0000E+00  0.1010E+00  0.1010E+00
     -2.979  0.0000E+00  0.0000E+00  0.1010E+00  0.1010E+00
     -2.774  0.0000E+00  0.0000E+00  0.1010E+00  0.1010E+00
     -2.568  0.0000E+00  0.0000E+00  0.1010E+00  0.1010E+00
     -2.362  0.0000E+00  0.0000E+00  0.1010E+00  0.1010E+00
     -2.157  0.0000E+00  0.0000E+00  0.1010E+00  0.1010E+00
     -1.951  0.0000E+00  0.0000E+00  0.1010E+00  0.1010E+00
     -1.745  0.0000E+00  0.0000E+00  0.1010E+00  0.1010E+00
     -1.539  0.0000E+00  0.0000E+00  0.1010E+00  0.1010E+00
     -1.334  0.0000E+00  0.0000E+00  0.1010E+00  0.1010E+00
     -1.128  0.0000E+00  0.0000E+00  0.1010E+00  0.1010E+00
     -0.922  0.0000E+00  0.0000E+00  0.1010E+00  0.1010E+00
     -0.717  0.0000E+00  0.0000E+00  0.1010E+00  0.1010E+00
     -0.511  0.0000E+00  0.0000E+00  0.1010E+00  0.1010E+00
     -0.305  0.0000E+00  0.0000E+00  0.1010E+00  0.1010E+00
     -0.100  0.0000E+00  0.0000E+00  0.1010E+00  0.1010E+00
      0.106  0.0000E+00  0.0000E+00  0.1010E+00  0.1010E+00
      0.312  0.0000E+00  0.0000E+00  0.1010E+00  0.1010E+00
      0.517  0.5234E-02  0.0000E+00  0.1014E+00  0.1010E+00
      0.723  0.2646E-01  0.9737E-03  0.1052E+00  0.1011E+00
      0.929  0.1414E-01  0.2265E-02  0.1091E+00  0.1014E+00
      1.134  0.2111E-01  0.4911E-02  0.1146E+00  0.1021E+00
      1.340  0.1730E-01  0.1009E-01  0.1185E+00  0.1037E+00
      1.546  0.3215E-01  0.1168E-01  0.1231E+00  0.1059E+00
      1.752  0.4481E-01  0.9113E-02  0.1320E+00  0.1081E+00
      1.957  0.3727E-01  0.9398E-02  0.1408E+00  0.1103E+00
      2.163  0.2466E-01  0.7261E-02  0.1475E+00  0.1120E+00
      2.369  0.1141E-01  0.2726E-01  0.1518E+00  0.1139E+00
      2.574  0.7563E-02  0.2541E-01  0.1537E+00  0.1188E+00
      2.780  0.6295E-02  0.3274E-01  0.1551E+00  0.1266E+00
      2.986  0.5060E-02  0.1452E-01  0.1563E+00  0.1376E+00
      3.191  0.0000E+00  0.2379E-01  0.1616E+00  0.1428E+00
      3.397  0.0000E+00  0.1971E-01  0.1616E+00  0.1486E+00
      3.603  0.0000E+00  0.1369E-01  0.1616E+00  0.1519E+00
      3.808  0.7866E-02  0.1357E-01  0.1624E+00  0.1549E+00
      4.014  0.2541E-01  0.1257E-01  0.1655E+00  0.1577E+00
      4.220  0.2086E-01  0.7775E-02  0.1695E+00  0.1599E+00
      4.425  0.2691E-01  0.3385E-01  0.1747E+00  0.1638E+00
      4.631  0.2871E-01  0.2677E-01  0.1810E+00  0.1689E+00
      4.837  0.4004E-01  0.2443E-01  0.1876E+00  0.1746E+00
      5.043  0.2681E-01  0.2328E-01  0.1939E+00  0.1802E+00
      5.248  0.5128E-01  0.2031E-01  0.2009E+00  0.1869E+00
      5.454  0.3832E-01  0.9471E-02  0.2128E+00  0.1901E+00
      5.660  0.1085E-01  0.0000E+00  0.2218E+00  0.1919E+00
      5.865  0.0000E+00  0.0000E+00  0.2222E+00  0.1919E+00
      6.071  0.0000E+00  0.0000E+00  0.2222E+00  0.1919E+00
      6.277  0.6294E-02  0.0000E+00  0.2238E+00  0.1919E+00
      6.482  0.6326E-02  0.0000E+00  0.2251E+00  0.1919E+00
      6.688  0.1423E-01  0.0000E+00  0.2265E+00  0.1919E+00
      6.894  0.3848E-02  0.0000E+00  0.2283E+00  0.1919E+00
      7.099  0.3731E-02  0.0000E+00  0.2291E+00  0.1919E+00
      7.305  0.3642E-02  0.0000E+00  0.2299E+00  0.1919E+00
      7.511  0.4132E-02  0.0000E+00  0.2307E+00  0.1919E+00
      7.716  0.4499E-02  0.0000E+00  0.2316E+00  0.1919E+00
      7.922  0.5005E-02  0.0000E+00  0.2325E+00  0.1919E+00
      8.128  0.6311E-02  0.0000E+00  0.2338E+00  0.1919E+00
      8.334  0.6153E-02  0.0000E+00  0.2351E+00  0.1919E+00
      8.539  0.5610E-02  0.0000E+00  0.2363E+00  0.1919E+00
      8.745  0.5588E-02  0.0000E+00  0.2375E+00  0.1919E+00
      8.951  0.6281E-02  0.0000E+00  0.2388E+00  0.1919E+00
      9.156  0.6003E-02  0.0000E+00  0.2401E+00  0.1919E+00
      9.362  0.2330E-01  0.1949E+00  0.2425E+00  0.2002E+00
      9.568  0.3726E+00  0.9861E-01  0.2629E+00  0.2239E+00
      9.773  0.9107E-01  0.7850E-01  0.3043E+00  0.2560E+00
      9.979  0.0000E+00  0.4866E-02  0.3131E+00  0.2632E+00
     10.185  0.8060E-03  0.1093E-01  0.3133E+00  0.2649E+00
     10.390  0.1309E-02  0.1815E-01  0.3135E+00  0.2679E+00
     10.596  0.1915E-02  0.2264E-01  0.3138E+00  0.2721E+00
     10.802  0.2787E-02  0.2903E-01  0.3143E+00  0.2774E+00
     11.007  0.3310E-02  0.4740E-01  0.3150E+00  0.2863E+00
     11.213  0.5013E-02  0.1583E-01  0.3158E+00  0.2947E+00
     11.419  0.8946E-02  0.6109E-02  0.3173E+00  0.2969E+00
     11.625  0.1405E-01  0.6185E-01  0.3194E+00  0.2993E+00
     11.830  0.7809E-02  0.2429E-01  0.3226E+00  0.3047E+00
     12.036  0.0000E+00  0.1493E-01  0.3232E+00  0.3084E+00
     12.242  0.0000E+00  0.2290E-01  0.3232E+00  0.3121E+00
     12.447  0.0000E+00  0.1954E-01  0.3232E+00  0.3169E+00
     12.653  0.0000E+00  0.1004E-01  0.3232E+00  0.3205E+00
     12.859  0.0000E+00  0.4311E-02  0.3232E+00  0.3218E+00
     13.064  0.0000E+00  0.2785E-02  0.3232E+00  0.3225E+00
     13.270  0.0000E+00  0.1555E-02  0.3232E+00  0.3230E+00
     13.476  0.0000E+00  0.0000E+00  0.3232E+00  0.3232E+00
     13.681  0.0000E+00  0.0000E+00  0.3232E+00  0.3232E+00
     13.887  0.0000E+00  0.0000E+00  0.3232E+00  0.3232E+00
     14.093  0.0000E+00  0.0000E+00  0.3232E+00  0.3232E+00
     14.298  0.0000E+00  0.0000E+00  0.3232E+00  0.3232E+00
     14.504  0.0000E+00  0.0000E+00  0.3232E+00  0.3232E+00
     14.710  0.0000E+00  0.0000E+00  0.3232E+00  0.3232E+00
     14.916  0.0000E+00  0.0000E+00  0.3232E+00  0.3232E+00
     15.121  0.0000E+00  0.0000E+00  0.3232E+00  0.3232E+00
     15.327  0.0000E+00  0.0000E+00  0.3232E+00  0.3232E+00
     15.533  0.0000E+00  0.0000E+00  0.3232E+00  0.3232E+00
     15.738  0.0000E+00  0.0000E+00  0.3232E+00  0.3232E+00
     15.944  0.0000E+00  0.0000E+00  0.3232E+00  0.3232E+00
     16.150  0.0000E+00  0.0000E+00  0.3232E+00  0.3232E+00
     16.14963944    -45.55650599  301      7.87645425      1.00000000
    -45.557  0.0000E+00  0.0000E+00  0.0000E+00  0.0000E+00  0.0000E+00  0.0000E+00  0.0000E+00  0.0000E+00  0.0000E+00  0.0000E+00  0.0000E+00  0.0000E+00  0.0000E+00  0.0000E+00  0.0000E+00  0.0000E+00  0.0000E+00  0.0000E+00  0.0000E+00  0.0000E+00  0.0000E+00  0.0000E+00  0.0000E+00  0.0000E+00  0.0000E+00  0.0000E+00  0.0000E+00  0.0000E+00  0.0000E+00  0.0000E+00  0.0000E+00  0.0000E+00
    -45.351  0.0000E+00  0.0000E+00  0.0000E+00  0.0000E+00  0.0000E+00  0.0000E+00  0.0000E+00  0.0000E+00  0.0000E+00  0.0000E+00  0.0000E+00  0.0000E+00  0.0000E+00  0.0000E+00  0.0000E+00  0.0000E+00  0.0000E+00  0.0000E+00  0.0000E+00  0.0000E+00  0.0000E+00  0.0000E+00  0.0000E+00  0.0000E+00  0.0000E+00  0.0000E+00  0.0000E+00  0.0000E+00  0.0000E+00  0.0000E+00  0.0000E+00  0.0000E+00
    -45.145  0.0000E+00  0.0000E+00  0.0000E+00  0.0000E+00  0.0000E+00  0.0000E+00  0.0000E+00  0.0000E+00  0.0000E+00  0.0000E+00  0.0000E+00  0.0000E+00  0.0000E+00  0.0000E+00  0.0000E+00  0.0000E+00  0.0000E+00  0.0000E+00  0.0000E+00  0.0000E+00  0.0000E+00  0.0000E+00  0.0000E+00  0.0000E+00  0.0000E+00  0.0000E+00  0.0000E+00  0.0000E+00  0.0000E+00  0.0000E+00  0.0000E+00  0.0000E+00
    -44.939  0.0000E+00  0.0000E+00  0.0000E+00  0.0000E+00  0.0000E+00  0.0000E+00  0.0000E+00  0.0000E+00  0.0000E+00  0.0000E+00  0.0000E+00  0.0000E+00  0.0000E+00  0.0000E+00  0.0000E+00  0.0000E+00  0.0000E+00  0.0000E+00  0.0000E+00  0.0000E+00  0.0000E+00  0.0000E+00  0.0000E+00  0.0000E+00  0.0000E+00  0.0000E+00  0.0000E+00  0.0000E+00  0.0000E+00  0.0000E+00  0.0000E+00  0.0000E+00
    -44.734  0.0000E+00  0.0000E+00  0.0000E+00  0.0000E+00  0.0000E+00  0.0000E+00  0.0000E+00  0.0000E+00  0.0000E+00  0.0000E+00  0.0000E+00  0.0000E+00  0.0000E+00  0.0000E+00  0.0000E+00  0.0000E+00  0.0000E+00  0.0000E+00  0.0000E+00  0.0000E+00  0.0000E+00  0.0000E+00  0.0000E+00  0.0000E+00  0.0000E+00  0.0000E+00  0.0000E+00  0.0000E+00  0.0000E+00  0.0000E+00  0.0000E+00  0.0000E+00
    -44.528  0.0000E+00  0.0000E+00  0.0000E+00  0.0000E+00  0.0000E+00  0.0000E+00  0.0000E+00  0.0000E+00  0.0000E+00  0.0000E+00  0.0000E+00  0.0000E+00  0.0000E+00  0.0000E+00  0.0000E+00  0.0000E+00  0.0000E+00  0.0000E+00  0.0000E+00  0.0000E+00  0.0000E+00  0.0000E+00  0.0000E+00  0.0000E+00  0.0000E+00  0.0000E+00  0.0000E+00  0.0000E+00  0.0000E+00  0.0000E+00  0.0000E+00  0.0000E+00
    -44.322  0.0000E+00  0.0000E+00  0.0000E+00  0.0000E+00  0.0000E+00  0.0000E+00  0.0000E+00  0.0000E+00  0.0000E+00  0.0000E+00  0.0000E+00  0.0000E+00  0.0000E+00  0.0000E+00  0.0000E+00  0.0000E+00  0.0000E+00  0.0000E+00  0.0000E+00  0.0000E+00  0.0000E+00  0.0000E+00  0.0000E+00  0.0000E+00  0.0000E+00  0.0000E+00  0.0000E+00  0.0000E+00  0.0000E+00  0.0000E+00  0.0000E+00  0.0000E+00
    -44.117  0.0000E+00  0.0000E+00  0.0000E+00  0.0000E+00  0.0000E+00  0.0000E+00  0.0000E+00  0.0000E+00  0.0000E+00  0.0000E+00  0.0000E+00  0.0000E+00  0.0000E+00  0.0000E+00  0.0000E+00  0.0000E+00  0.0000E+00  0.0000E+00  0.0000E+00  0.0000E+00  0.0000E+00  0.0000E+00  0.0000E+00  0.0000E+00  0.0000E+00  0.0000E+00  0.0000E+00  0.0000E+00  0.0000E+00  0.0000E+00  0.0000E+00  0.0000E+00
    -43.911  0.0000E+00  0.0000E+00  0.0000E+00  0.0000E+00  0.0000E+00  0.0000E+00  0.0000E+00  0.0000E+00  0.0000E+00  0.0000E+00  0.0000E+00  0.0000E+00  0.0000E+00  0.0000E+00  0.0000E+00  0.0000E+00  0.0000E+00  0.0000E+00  0.0000E+00  0.0000E+00  0.0000E+00  0.0000E+00  0.0000E+00  0.0000E+00  0.0000E+00  0.0000E+00  0.0000E+00  0.0000E+00  0.0000E+00  0.0000E+00  0.0000E+00  0.0000E+00
    -43.705  0.0000E+00  0.0000E+00  0.0000E+00  0.0000E+00  0.0000E+00  0.0000E+00  0.0000E+00  0.0000E+00  0.0000E+00  0.0000E+00  0.0000E+00  0.0000E+00  0.0000E+00  0.0000E+00  0.0000E+00  0.0000E+00  0.0000E+00  0.0000E+00  0.0000E+00  0.0000E+00  0.0000E+00  0.0000E+00  0.0000E+00  0.0000E+00  0.0000E+00  0.0000E+00  0.0000E+00  0.0000E+00  0.0000E+00  0.0000E+00  0.0000E+00  0.0000E+00
    -43.500  0.0000E+00  0.0000E+00  0.0000E+00  0.0000E+00  0.0000E+00  0.0000E+00  0.0000E+00  0.0000E+00  0.0000E+00  0.0000E+00  0.0000E+00  0.0000E+00  0.0000E+00  0.0000E+00  0.0000E+00  0.0000E+00  0.0000E+00  0.0000E+00  0.0000E+00  0.0000E+00  0.0000E+00  0.0000E+00  0.0000E+00  0.0000E+00  0.0000E+00  0.0000E+00  0.0000E+00  0.0000E+00  0.0000E+00  0.0000E+00  0.0000E+00  0.0000E+00
    -43.294  0.0000E+00  0.0000E+00  0.0000E+00  0.0000E+00  0.0000E+00  0.0000E+00  0.0000E+00  0.0000E+00  0.0000E+00  0.0000E+00  0.0000E+00  0.0000E+00  0.0000E+00  0.0000E+00  0.0000E+00  0.0000E+00  0.0000E+00  0.0000E+00  0.0000E+00  0.0000E+00  0.0000E+00  0.0000E+00  0.0000E+00  0.0000E+00  0.0000E+00  0.0000E+00  0.0000E+00  0.0000E+00  0.0000E+00  0.0000E+00  0.0000E+00  0.0000E+00
    -43.088  0.0000E+00  0.0000E+00  0.0000E+00  0.0000E+00  0.0000E+00  0.0000E+00  0.0000E+00  0.0000E+00  0.0000E+00  0.0000E+00  0.0000E+00  0.0000E+00  0.0000E+00  0.0000E+00  0.0000E+00  0.0000E+00  0.0000E+00  0.0000E+00  0.0000E+00  0.0000E+00  0.0000E+00  0.0000E+00  0.0000E+00  0.0000E+00  0.0000E+00  0.0000E+00  0.0000E+00  0.0000E+00  0.0000E+00  0.0000E+00  0.0000E+00  0.0000E+00
    -42.883  0.0000E+00  0.0000E+00  0.0000E+00  0.0000E+00  0.0000E+00  0.0000E+00  0.0000E+00  0.0000E+00  0.0000E+00  0.0000E+00  0.0000E+00  0.0000E+00  0.0000E+00  0.0000E+00  0.0000E+00  0.0000E+00  0.0000E+00  0.0000E+00  0.0000E+00  0.0000E+00  0.0000E+00  0.0000E+00  0.0000E+00  0.0000E+00  0.0000E+00  0.0000E+00  0.0000E+00  0.0000E+00  0.0000E+00  0.0000E+00  0.0000E+00  0.0000E+00
    -42.677  0.0000E+00  0.0000E+00  0.0000E+00  0.0000E+00  0.0000E+00  0.0000E+00  0.0000E+00  0.0000E+00  0.0000E+00  0.0000E+00  0.0000E+00  0.0000E+00  0.0000E+00  0.0000E+00  0.0000E+00  0.0000E+00  0.0000E+00  0.0000E+00  0.0000E+00  0.0000E+00  0.0000E+00  0.0000E+00  0.0000E+00  0.0000E+00  0.0000E+00  0.0000E+00  0.0000E+00  0.0000E+00  0.0000E+00  0.0000E+00  0.0000E+00  0.0000E+00
    -42.471  0.0000E+00  0.0000E+00  0.0000E+00  0.0000E+00  0.0000E+00  0.0000E+00  0.0000E+00  0.0000E+00  0.0000E+00  0.0000E+00  0.0000E+00  0.0000E+00  0.0000E+00  0.0000E+00  0.0000E+00  0.0000E+00  0.0000E+00  0.0000E+00  0.0000E+00  0.0000E+00  0.0000E+00  0.0000E+00  0.0000E+00  0.0000E+00  0.0000E+00  0.0000E+00  0.0000E+00  0.0000E+00  0.0000E+00  0.0000E+00  0.0000E+00  0.0000E+00
    -42.266  0.0000E+00  0.0000E+00  0.0000E+00  0.0000E+00  0.0000E+00  0.0000E+00  0.0000E+00  0.0000E+00  0.0000E+00  0.0000E+00  0.0000E+00  0.0000E+00  0.0000E+00  0.0000E+00  0.0000E+00  0.0000E+00  0.0000E+00  0.0000E+00  0.0000E+00  0.0000E+00  0.0000E+00  0.0000E+00  0.0000E+00  0.0000E+00  0.0000E+00  0.0000E+00  0.0000E+00  0.0000E+00  0.0000E+00  0.0000E+00  0.0000E+00  0.0000E+00
    -42.060  0.0000E+00  0.0000E+00  0.0000E+00  0.0000E+00  0.0000E+00  0.0000E+00  0.0000E+00  0.0000E+00  0.0000E+00  0.0000E+00  0.0000E+00  0.0000E+00  0.0000E+00  0.0000E+00  0.0000E+00  0.0000E+00  0.0000E+00  0.0000E+00  0.0000E+00  0.0000E+00  0.0000E+00  0.0000E+00  0.0000E+00  0.0000E+00  0.0000E+00  0.0000E+00  0.0000E+00  0.0000E+00  0.0000E+00  0.0000E+00  0.0000E+00  0.0000E+00
    -41.854  0.0000E+00  0.0000E+00  0.0000E+00  0.0000E+00  0.0000E+00  0.0000E+00  0.0000E+00  0.0000E+00  0.0000E+00  0.0000E+00  0.0000E+00  0.0000E+00  0.0000E+00  0.0000E+00  0.0000E+00  0.0000E+00  0.0000E+00  0.0000E+00  0.0000E+00  0.0000E+00  0.0000E+00  0.0000E+00  0.0000E+00  0.0000E+00  0.0000E+00  0.0000E+00  0.0000E+00  0.0000E+00  0.0000E+00  0.0000E+00  0.0000E+00  0.0000E+00
    -41.648  0.0000E+00  0.0000E+00  0.0000E+00  0.0000E+00  0.0000E+00  0.0000E+00  0.0000E+00  0.0000E+00  0.0000E+00  0.0000E+00  0.0000E+00  0.0000E+00  0.0000E+00  0.0000E+00  0.0000E+00  0.0000E+00  0.0000E+00  0.0000E+00  0.0000E+00  0.0000E+00  0.0000E+00  0.0000E+00  0.0000E+00  0.0000E+00  0.0000E+00  0.0000E+00  0.0000E+00  0.0000E+00  0.0000E+00  0.0000E+00  0.0000E+00  0.0000E+00
    -41.443  0.0000E+00  0.0000E+00  0.0000E+00  0.0000E+00  0.0000E+00  0.0000E+00  0.0000E+00  0.0000E+00  0.0000E+00  0.0000E+00  0.0000E+00  0.0000E+00  0.0000E+00  0.0000E+00  0.0000E+00  0.0000E+00  0.0000E+00  0.0000E+00  0.0000E+00  0.0000E+00  0.0000E+00  0.0000E+00  0.0000E+00  0.0000E+00  0.0000E+00  0.0000E+00  0.0000E+00  0.0000E+00  0.0000E+00  0.0000E+00  0.0000E+00  0.0000E+00
    -41.237  0.0000E+00  0.0000E+00  0.0000E+00  0.0000E+00  0.0000E+00  0.0000E+00  0.0000E+00  0.0000E+00  0.0000E+00  0.0000E+00  0.0000E+00  0.0000E+00  0.0000E+00  0.0000E+00  0.0000E+00  0.0000E+00  0.0000E+00  0.0000E+00  0.0000E+00  0.0000E+00  0.0000E+00  0.0000E+00  0.0000E+00  0.0000E+00  0.0000E+00  0.0000E+00  0.0000E+00  0.0000E+00  0.0000E+00  0.0000E+00  0.0000E+00  0.0000E+00
    -41.031  0.0000E+00  0.0000E+00  0.0000E+00  0.0000E+00  0.0000E+00  0.0000E+00  0.0000E+00  0.0000E+00  0.0000E+00  0.0000E+00  0.0000E+00  0.0000E+00  0.0000E+00  0.0000E+00  0.0000E+00  0.0000E+00  0.0000E+00  0.0000E+00  0.0000E+00  0.0000E+00  0.0000E+00  0.0000E+00  0.0000E+00  0.0000E+00  0.0000E+00  0.0000E+00  0.0000E+00  0.0000E+00  0.0000E+00  0.0000E+00  0.0000E+00  0.0000E+00
    -40.826  0.0000E+00  0.0000E+00  0.0000E+00  0.0000E+00  0.0000E+00  0.0000E+00  0.0000E+00  0.0000E+00  0.0000E+00  0.0000E+00  0.0000E+00  0.0000E+00  0.0000E+00  0.0000E+00  0.0000E+00  0.0000E+00  0.0000E+00  0.0000E+00  0.0000E+00  0.0000E+00  0.0000E+00  0.0000E+00  0.0000E+00  0.0000E+00  0.0000E+00  0.0000E+00  0.0000E+00  0.0000E+00  0.0000E+00  0.0000E+00  0.0000E+00  0.0000E+00
    -40.620  0.0000E+00  0.0000E+00  0.0000E+00  0.0000E+00  0.0000E+00  0.0000E+00  0.0000E+00  0.0000E+00  0.0000E+00  0.0000E+00  0.0000E+00  0.0000E+00  0.0000E+00  0.0000E+00  0.0000E+00  0.0000E+00  0.0000E+00  0.0000E+00  0.0000E+00  0.0000E+00  0.0000E+00  0.0000E+00  0.0000E+00  0.0000E+00  0.0000E+00  0.0000E+00  0.0000E+00  0.0000E+00  0.0000E+00  0.0000E+00  0.0000E+00  0.0000E+00
    -40.414  0.0000E+00  0.0000E+00  0.0000E+00  0.0000E+00  0.0000E+00  0.0000E+00  0.0000E+00  0.0000E+00  0.0000E+00  0.0000E+00  0.0000E+00  0.0000E+00  0.0000E+00  0.0000E+00  0.0000E+00  0.0000E+00  0.0000E+00  0.0000E+00  0.0000E+00  0.0000E+00  0.0000E+00  0.0000E+00  0.0000E+00  0.0000E+00  0.0000E+00  0.0000E+00  0.0000E+00  0.0000E+00  0.0000E+00  0.0000E+00  0.0000E+00  0.0000E+00
    -40.209  0.0000E+00  0.0000E+00  0.0000E+00  0.0000E+00  0.0000E+00  0.0000E+00  0.0000E+00  0.0000E+00  0.0000E+00  0.0000E+00  0.0000E+00  0.0000E+00  0.0000E+00  0.0000E+00  0.0000E+00  0.0000E+00  0.0000E+00  0.0000E+00  0.0000E+00  0.0000E+00  0.0000E+00  0.0000E+00  0.0000E+00  0.0000E+00  0.0000E+00  0.0000E+00  0.0000E+00  0.0000E+00  0.0000E+00  0.0000E+00  0.0000E+00  0.0000E+00
    -40.003  0.0000E+00  0.0000E+00  0.0000E+00  0.0000E+00  0.0000E+00  0.0000E+00  0.0000E+00  0.0000E+00  0.0000E+00  0.0000E+00  0.0000E+00  0.0000E+00  0.0000E+00  0.0000E+00  0.0000E+00  0.0000E+00  0.0000E+00  0.0000E+00  0.0000E+00  0.0000E+00  0.0000E+00  0.0000E+00  0.0000E+00  0.0000E+00  0.0000E+00  0.0000E+00  0.0000E+00  0.0000E+00  0.0000E+00  0.0000E+00  0.0000E+00  0.0000E+00
    -39.797  0.0000E+00  0.0000E+00  0.0000E+00  0.0000E+00  0.0000E+00  0.0000E+00  0.0000E+00  0.0000E+00  0.0000E+00  0.0000E+00  0.0000E+00  0.0000E+00  0.0000E+00  0.0000E+00  0.0000E+00  0.0000E+00  0.0000E+00  0.0000E+00  0.0000E+00  0.0000E+00  0.0000E+00  0.0000E+00  0.0000E+00  0.0000E+00  0.0000E+00  0.0000E+00  0.0000E+00  0.0000E+00  0.0000E+00  0.0000E+00  0.0000E+00  0.0000E+00