    5    5   99    2
  0.1223411E+02  0.3940162E-09  0.3940162E-09  0.3940162E-09  0.5000000E-15
  1.000000000000000E-004
  CAR 
 unknown system                          
     42     10     32
 
  0.8333333E-01  0.8333333E-01  0.8333333E-01  0.3703704E-01
    1      -42.748332    -38.674490   1.000000   1.000000
    2      -42.748329    -38.674474   1.000000   1.000000
    3      -42.748314    -38.674469   1.000000   1.000000
    4      -25.071425    -25.065020   1.000000   1.000000
    5      -11.626198    -11.563840   1.000000   1.000000
    6      -10.461348    -10.314595   1.000000   1.000000
    7      -10.461342    -10.314593   1.000000   1.000000
    8       -8.597910     -8.571493   1.000000   1.000000
    9       -8.597906     -8.571492   1.000000   1.000000
   10       -8.498215     -8.476483   1.000000   1.000000
   11        2.175779      2.374413   1.000000   1.000000
   12        2.362139      2.660573   1.000000   1.000000
   13        2.362143      2.660578   1.000000   1.000000
   14        2.855973      4.163995   1.000000   1.000000
   15        2.855975      4.163996   1.000000   1.000000
   16        3.112422      4.547062   1.000000   1.000000
   17        4.456907      5.080704   1.000000   1.000000
   18        4.456911      5.423662   1.000000   1.000000
   19        4.482598      5.423664   1.000000   1.000000
   20        4.902378      9.207597   1.000000   0.000000
   21        4.902384      9.207720   1.000000   0.000000
   22        5.230076      9.321989   1.000000   0.000000
   23        6.255312      9.494224   1.000384   0.000000
   24        6.255323      9.494945   1.054898   0.000000
   25        9.235472      9.673546   0.000000   0.000000
   26        9.237387      9.813614   0.000000   0.000000
   27        9.594624      9.813846   0.000000   0.000000
   28        9.715176      9.860941   0.000000   0.000000
   29        9.769000      9.920743   0.000000   0.000000
   30        9.911698     10.139793   0.000000   0.000000
   31        9.949802     10.139207   0.000000   0.000000
   32       10.017928     12.129838   0.000000   0.000000
 
  0.2500000E+00  0.8333333E-01  0.8333333E-01  0.1111111E+00
    1      -42.750003    -38.677219   1.000000   1.000000
    2      -42.748227    -38.674330   1.000000   1.000000
    3      -42.748222    -38.674325   1.000000   1.000000
    4      -25.049448    -25.043134   1.000000   1.000000
    5      -11.738595    -11.674015   1.000000   1.000000
    6      -10.597286    -10.503138   1.000000   1.000000
    7      -10.420095    -10.270920   1.000000   1.000000
    8       -8.595465     -8.569977   1.000000   1.000000
    9       -8.517407     -8.491931   1.000000   1.000000
   10       -8.177325     -8.144910   1.000000   1.000000
   11        1.444122      2.054208   1.000000   1.000000
   12        2.069728      2.588713   1.000000   1.000000
   13        2.217292      2.685667   1.000000   1.000000
   14        2.439307      3.634751   1.000000   1.000000
   15        2.463316      3.812989   1.000000   1.000000
   16        3.114731      4.380306   1.000000   1.000000
   17        4.053926      4.438029   1.000000   1.000000
   18        4.181106      5.142260   1.000000   1.000000
   19        4.559219      5.174163   1.000000   1.000000
   20        4.758455      9.250061   1.000000   0.000000
   21        5.196670      9.326199   1.000000   0.000000
   22        5.317890      9.417710   1.000000   0.000000
   23        6.204653      9.592752   1.003980   0.000000
   24        7.341619      9.595438   0.986733   0.000000
   25        9.365844      9.714933   0.000000   0.000000
   26        9.469459      9.811814   0.000000   0.000000
   27        9.570522     10.083937   0.000000   0.000000
   28        9.673543     10.265208   0.000000   0.000000
   29        9.679684     10.314999   0.000000   0.000000
   30        9.774383     10.794479   0.000000   0.000000
   31        9.862822     10.865591   0.000000   0.000000
   32       10.611155     12.344246   0.000000   0.000000
 
  0.4166667E+00  0.8333333E-01  0.8333333E-01  0.1111111E+00
    1      -42.751681    -38.679957   1.000000   1.000000
    2      -42.748127    -38.674172   1.000000   1.000000
    3      -42.748120    -38.674164   1.000000   1.000000
    4      -25.027232    -25.021044   1.000000   1.000000
    5      -11.917416    -11.845205   1.000000   1.000000
    6      -10.573972    -10.531189   1.000000   1.000000
    7      -10.377570    -10.225744   1.000000   1.000000
    8       -8.594158     -8.569745   1.000000   1.000000
    9       -8.460010     -8.438211   1.000000   1.000000
   10       -7.923139     -7.888941   1.000000   1.000000
   11        0.784117      1.916512   1.000000   1.000000
   12        1.847867      2.471309   1.000000   1.000000
   13        2.037250      2.563858   1.000000   1.000000
   14        2.112775      3.172352   1.000000   1.000000
   15        2.224802      3.329696   1.000000   1.000000
   16        3.131882      4.256559   1.000000   1.000000
   17        3.704687      4.273888   1.000000   1.000000
   18        3.773131      4.757583   1.000000   1.000000
   19        4.467203      4.907943   1.000000   1.000000
   20        4.822523      9.200702   1.000000   0.000000
   21        5.570336      9.342250   1.000000   0.000000
   22        5.625352      9.538219   1.000000   0.000000
   23        6.100220      9.578775   1.007411   0.000000
   24        7.950068      9.593274   0.151766   0.000000
   25        9.389378      9.733412   0.000000   0.000000
   26        9.566847      9.786568   0.000000   0.000000
   27        9.567088     10.383864   0.000000   0.000000
   28        9.630690     10.917019   0.000000   0.000000
   29        9.637053     10.945313   0.000000   0.000000
   30        9.759190     11.539835   0.000000   0.000000
   31        9.821737     11.653673   0.000000   0.000000
   32       11.368100     12.158437   0.000000   0.000000
 
  0.2500000E+00  0.2500000E+00  0.8333333E-01  0.1111111E+00
    1      -42.749907    -38.677072   1.000000   1.000000
    2      -42.749886    -38.677024   1.000000   1.000000
    3      -42.748135    -38.674182   1.000000   1.000000
    4      -25.028927    -25.022756   1.000000   1.000000
    5      -11.660244    -11.601198   1.000000   1.000000
    6      -10.775715    -10.691457   1.000000   1.000000
    7      -10.435739    -10.312572   1.000000   1.000000
    8       -8.573953     -8.548771   1.000000   1.000000
    9       -8.380252     -8.345394   1.000000   1.000000
   10       -8.138887     -8.115167   1.000000   1.000000
   11        1.186804      1.706630   1.000000   1.000000
   12        1.596680      2.651592   1.000000   1.000000
   13        1.810385      2.847014   1.000000   1.000000
   14        2.024625      2.987244   1.000000   1.000000
   15        2.172889      3.602924   1.000000   1.000000
   16        3.040323      3.925039   1.000000   1.000000
   17        3.969972      4.641936   1.000000   1.000000
   18        4.452708      4.854229   1.000000   1.000000
   19        4.811447      5.167157   1.000000   1.000000
   20        4.871986      9.349444   1.000000   0.000000
   21        5.099735      9.389735   1.000000   0.000000
   22        5.234534      9.393494   1.000000   0.000000
   23        6.663587      9.594074   1.020888   0.000000
   24        8.123399      9.617530   0.175681   0.000000
   25        9.433820      9.653669   0.000000   0.000000
   26        9.438087      9.808030   0.000000   0.000000
   27        9.570898     10.298236   0.000000   0.000000
   28        9.617260     10.466642   0.000000   0.000000
   29        9.671511     10.594751   0.000000   0.000000
   30        9.693562     11.490291   0.000000   0.000000
   31        9.828725     11.582593   0.000000   0.000000
   32       10.965768     12.565852   0.000000   0.000000
 
  0.4166667E+00  0.2500000E+00  0.8333333E-01  0.2222222E+00
    1      -42.751571    -38.679773   1.000000   1.000000
    2      -42.749792    -38.676878   1.000000   1.000000
    3      -42.748034    -38.674030   1.000000   1.000000
    4      -25.008228    -25.002193   1.000000   1.000000
    5      -11.666635    -11.601268   1.000000   1.000000
    6      -10.819811    -10.774579   1.000000   1.000000
    7      -10.436227    -10.315306   1.000000   1.000000
    8       -8.588466     -8.564718   1.000000   1.000000
    9       -8.299939     -8.279119   1.000000   1.000000
   10       -8.069192     -8.041303   1.000000   1.000000
   11        0.725945      1.580864   1.000000   1.000000
   12        1.183298      2.350542   1.000000   1.000000
   13        1.517039      2.666365   1.000000   1.000000
   14        1.871975      2.816849   1.000000   1.000000
   15        1.932462      3.363368   1.000000   1.000000
   16        3.062963      3.991423   1.000000   1.000000
   17        3.988020      4.391423   1.000000   1.000000
   18        4.291841      4.630904   1.000000   1.000000
   19        4.635965      5.151646   1.000000   1.000000
   20        5.077454      9.356403   1.000000   0.000000
   21        5.379581      9.423344   1.000000   0.000000
   22        5.546396      9.451051   1.000000   0.000000
   23        6.695959      9.597527   1.036480   0.000000
   24        8.760489      9.608285  -0.020972   0.000000
   25        9.427262      9.658505   0.000000   0.000000
   26        9.494997      9.742051   0.000000   0.000000
   27        9.577590     10.669648   0.000000   0.000000
   28        9.609474     10.804842   0.000000   0.000000
   29        9.638262     11.014533   0.000000   0.000000
   30        9.675038     11.870119   0.000000   0.000000
   31        9.760774     12.066164   0.000000   0.000000
   32       11.638628     12.557012   0.000000   0.000000
 
  0.4166667E+00  0.4166667E+00  0.8333333E-01  0.1111111E+00
    1      -42.751460    -38.679609   1.000000   1.000000
    2      -42.751455    -38.679592   1.000000   1.000000
    3      -42.747938    -38.673881   1.000000   1.000000
    4      -24.989059    -24.983193   1.000000   1.000000
    5      -11.303023    -11.246466   1.000000   1.000000
    6      -11.027856    -10.985276   1.000000   1.000000
    7      -10.635538    -10.537063   1.000000   1.000000
    8       -8.529564     -8.509141   1.000000   1.000000
    9       -8.227721     -8.207762   1.000000   1.000000
   10       -8.173992     -8.156310   1.000000   1.000000
   11        0.557526      1.328316   1.000000   1.000000
   12        0.732691      1.826949   1.000000   1.000000
   13        0.931672      2.852654   1.000000   1.000000
   14        1.717144      2.936167   1.000000   1.000000
   15        1.730724      3.198157   1.000000   1.000000
   16        3.080646      3.673012   1.000000   1.000000
   17        4.295662      4.437519   1.000000   1.000000
   18        4.458898      4.562959   1.000000   1.000000
   19        5.132782      5.556772   1.000000   1.000000
   20        5.337960      9.376010   1.000000   0.000000
   21        5.379717      9.389135   1.000000   0.000000
   22        5.510696      9.546014   1.000000   0.000000
   23        6.788083      9.619009   1.048477   0.000000
   24        9.359388      9.635192   0.000000   0.000000
   25        9.394122      9.646714   0.000000   0.000000
   26        9.589034      9.700280   0.000000   0.000000
   27        9.632692     10.963465   0.000000   0.000000
   28        9.651930     11.049780   0.000000   0.000000
   29        9.655828     11.086518   0.000000   0.000000
   30        9.667876     11.619460   0.000000   0.000000
   31        9.712695     12.480293   0.000000   0.000000
   32       11.828894     13.344815   0.000000   0.000000
 
  0.2500000E+00  0.2500000E+00  0.2500000E+00  0.3703704E-01
    1      -42.749806    -38.676921   1.000000   1.000000
    2      -42.749780    -38.676871   1.000000   1.000000
    3      -42.749765    -38.676869   1.000000   1.000000
    4      -25.009564    -25.003540   1.000000   1.000000
    5      -11.535002    -11.483668   1.000000   1.000000
    6      -10.632700    -10.544526   1.000000   1.000000
    7      -10.632694    -10.544523   1.000000   1.000000
    8       -8.569571     -8.536034   1.000000   1.000000
    9       -8.569569     -8.536033   1.000000   1.000000
   10       -8.080363     -8.061022   1.000000   1.000000
   11        0.980238      1.430158   1.000000   1.000000
   12        1.591762      2.864355   1.000000   1.000000
   13        1.591764      2.864358   1.000000   1.000000
   14        1.867436      3.069237   1.000000   1.000000
   15        1.867438      3.220048   1.000000   1.000000
   16        2.110307      3.220056   1.000000   1.000000
   17        4.555577      4.995827   1.000000   1.000000
   18        4.555579      4.995827   1.000000   1.000000
   19        4.921390      5.042984   1.000000   1.000000
   20        4.979820      9.367728   1.000000   0.000000
   21        5.182150      9.367816   1.000000   0.000000
   22        5.182153      9.458246   1.000000   0.000000
   23        8.096568      9.573376   0.655622   0.000000
   24        8.096583      9.624711   0.059941   0.000000
   25        9.450979      9.624734   0.000000   0.000000
   26        9.452591      9.894987   0.000000   0.000000
   27        9.548235     10.516707   0.000000   0.000000
   28        9.600208     10.519746   0.000000   0.000000
   29        9.646980     10.897783   0.000000   0.000000
   30        9.647152     11.869970   0.000000   0.000000
   31        9.899678     11.905517   0.000000   0.000000
   32       11.378072     12.204343   0.000000   0.000000
 
  0.4166667E+00  0.2500000E+00  0.2500000E+00  0.1111111E+00
    1      -42.751456    -38.679601   1.000000   1.000000
    2      -42.749700    -38.676758   1.000000   1.000000
    3      -42.749678    -38.676723   1.000000   1.000000
    4      -24.990034    -24.984174   1.000000   1.000000
    5      -11.431208    -11.374387   1.000000   1.000000
    6      -10.790641    -10.745920   1.000000   1.000000
    7      -10.458363    -10.363756   1.000000   1.000000
    8       -8.790586     -8.760953   1.000000   1.000000
    9       -8.407025     -8.379703   1.000000   1.000000
   10       -8.195919     -8.175473   1.000000   1.000000
   11        0.696354      1.313023   1.000000   1.000000
   12        1.155533      2.450582   1.000000   1.000000
   13        1.523013      2.868269   1.000000   1.000000
   14        1.589212      2.874965   1.000000   1.000000
   15        1.658583      3.043110   1.000000   1.000000
   16        2.067365      3.446570   1.000000   1.000000
   17        4.502653      4.832653   1.000000   1.000000
   18        4.772134      4.991616   1.000000   1.000000
   19        4.840920      5.161113   1.000000   1.000000
   20        5.239550      9.375647   1.000000   0.000000
   21        5.279007      9.418054   1.000000   0.000000
   22        5.621506      9.504402   1.000000   0.000000
   23        8.044752      9.552378   0.506152   0.000000
   24        8.926624      9.630079  -0.009764   0.000000
   25        9.449856      9.635778   0.000000   0.000000
   26        9.490436      9.826412   0.000000   0.000000
   27        9.557577     10.877395   0.000000   0.000000
   28        9.601770     11.043810   0.000000   0.000000
   29        9.643054     11.074205   0.000000   0.000000
   30        9.645190     12.222012   0.000000   0.000000
   31        9.842010     12.258068   0.000000   0.000000
   32       11.986557     12.587489   0.000000   0.000000
 
  0.4166667E+00  0.4166667E+00  0.2500000E+00  0.1111111E+00
    1      -42.751344    -38.679432   1.000000   1.000000
    2      -42.751342    -38.679422   1.000000   1.000000
    3      -42.749583    -38.676567   1.000000   1.000000
    4      -24.971699    -24.966013   1.000000   1.000000
    5      -11.088761    -11.041196   1.000000   1.000000
    6      -10.820231    -10.777706   1.000000   1.000000
    7      -10.542685    -10.470750   1.000000   1.000000
    8       -8.825457     -8.796723   1.000000   1.000000
    9       -8.565698     -8.539609   1.000000   1.000000
   10       -8.407920     -8.386309   1.000000   1.000000
   11        0.560170      1.039978   1.000000   1.000000
   12        0.936830      2.349097   1.000000   1.000000
   13        1.076886      2.866354   1.000000   1.000000
   14        1.550539      2.964389   1.000000   1.000000
   15        1.614207      3.107110   1.000000   1.000000
   16        1.779733      3.187960   1.000000   1.000000
   17        4.825914      4.969003   1.000000   1.000000
   18        4.951078      5.039371   1.000000   1.000000
   19        5.361604      5.553866   1.000000   1.000000
   20        5.391771      9.401518   1.000000   0.000000
   21        5.530038      9.403175   1.000000   0.000000
   22        5.610149      9.518921   1.000000   0.000000
   23        8.385819      9.578660   0.154047   0.000000
   24        9.410136      9.675633   0.000000   0.000000
   25        9.438701      9.684632   0.000000   0.000000
   26        9.554270      9.792033   0.000000   0.000000
   27        9.618015     11.149890   0.000000   0.000000
   28        9.637801     11.190018   0.000000   0.000000
   29        9.690779     11.331668   0.000000   0.000000
   30        9.694215     11.632920   0.000000   0.000000
   31        9.804083     12.295403   0.000000   0.000000
   32       11.601348     12.746260   0.000000   0.000000
 
  0.4166667E+00  0.4166667E+00  0.4166667E+00  0.3703704E-01
    1      -42.751245    -38.679272   1.000000   1.000000
    2      -42.751236    -38.679262   1.000000   1.000000
    3      -42.751235    -38.679262   1.000000   1.000000
    4      -24.954218    -24.948723   1.000000   1.000000
    5      -10.770896    -10.732739   1.000000   1.000000
    6      -10.536015    -10.493880   1.000000   1.000000
    7      -10.536014    -10.493878   1.000000   1.000000
    8       -8.974933     -8.943018   1.000000   1.000000
    9       -8.974926     -8.943016   1.000000   1.000000
   10       -8.774123     -8.745993   1.000000   1.000000
   11        0.409658      0.687564   1.000000   1.000000
   12        0.942383      2.842323   1.000000   1.000000
   13        0.942390      2.881642   1.000000   1.000000
   14        1.375674      2.881643   1.000000   1.000000
   15        1.514057      3.049221   1.000000   1.000000
   16        1.514058      3.049223   1.000000   1.000000
   17        5.393107      5.471967   1.000000   1.000000
   18        5.393109      5.471967   1.000000   1.000000
   19        5.532226      5.593715   1.000000   1.000000
   20        5.641304      9.428808   1.000000   0.000000
   21        5.708639      9.428830   1.000000   0.000000
   22        5.708641      9.458636   1.000000   0.000000
   23        9.471395      9.632789   0.000000   0.000000
   24        9.471806      9.762790   0.000000   0.000000
   25        9.490843      9.762803   0.000000   0.000000
   26        9.647246      9.870977   0.000000   0.000000
   27        9.641073     11.088206   0.000000   0.000000
   28        9.659286     11.194146   0.000000   0.000000
   29        9.781743     11.198479   0.000000   0.000000
   30        9.783537     11.614985   0.000000   0.000000
   31        9.876119     11.633744   0.000000   0.000000
   32       11.175322     11.705938   0.000000   0.000000
