PROCAR lm decomposed
# of k-points:   10         # of bands:  32         # of ions:   5

 k-point    1 :    0.08333333 0.08333333 0.08333333     weight = 0.03703704

band   1 # energy  -42.74833169 # occ.  1.00000000
 
ion      s     py     pz     px    dxy    dyz    dz2    dxz    dx2    f-3    f-2    f-1     f0     f1     f2     f3    tot
  1  0.000  0.000  0.000  0.000  0.000  0.000  0.000  0.000  0.000  0.000  0.000  0.000  0.000  0.000  0.000  0.000  0.000
  2  0.000  0.548  0.184  0.262  0.000  0.000  0.000  0.000  0.000  0.000  0.000  0.000  0.000  0.000  0.000  0.000  0.994
  3  0.000  0.000  0.000  0.001  0.000  0.000  0.000  0.000  0.000  0.000  0.000  0.000  0.000  0.000  0.000  0.000  0.001
  4  0.000  0.002  0.000  0.000  0.000  0.000  0.000  0.000  0.000  0.000  0.000  0.000  0.000  0.000  0.000  0.000  0.002
  5  0.000  0.000  0.001  0.000  0.000  0.000  0.000  0.000  0.000  0.000  0.000  0.000  0.000  0.000  0.000  0.000  0.001
tot  0.000  0.549  0.185  0.263  0.000  0.000  0.000  0.000  0.000  0.000  0.000  0.000  0.000  0.000  0.000  0.000  0.997

 
band   2 # energy  -42.74832917 # occ.  1.00000000
 
ion      s     py     pz     px    dxy    dyz    dz2    dxz    dx2    f-3    f-2    f-1     f0     f1     f2     f3    tot
  1  0.000  0.000  0.000  0.000  0.000  0.000  0.000  0.000  0.000  0.000  0.000  0.000  0.000  0.000  0.000  0.000  0.000
  2  0.000  0.148  0.216  0.630  0.000  0.000  0.000  0.000  0.000  0.000  0.000  0.000  0.000  0.000  0.000  0.000  0.994
  3  0.000  0.000  0.000  0.002  0.000  0.000  0.000  0.000  0.000  0.000  0.000  0.000  0.000  0.000  0.000  0.000  0.002
  4  0.000  0.000  0.000  0.000  0.000  0.000  0.000  0.000  0.000  0.000  0.000  0.000  0.000  0.000  0.000  0.000  0.000
  5  0.000  0.000  0.001  0.000  0.000  0.000  0.000  0.000  0.000  0.000  0.000  0.000  0.000  0.000  0.000  0.000  0.001
tot  0.000  0.148  0.216  0.632  0.000  0.000  0.000  0.000  0.000  0.000  0.000  0.000  0.000  0.000  0.000  0.000  0.997

 
band   3 # energy  -42.74831384 # occ.  1.00000000
 
ion      s     py     pz     px    dxy    dyz    dz2    dxz    dx2    f-3    f-2    f-1     f0     f1     f2     f3    tot
  1  0.000  0.000  0.000  0.000  0.000  0.000  0.000  0.000  0.000  0.000  0.000  0.000  0.000  0.000  0.000  0.000  0.000
  2  0.000  0.298  0.594  0.102  0.000  0.000  0.000  0.000  0.000  0.000  0.000  0.000  0.000  0.000  0.000  0.000  0.994
  3  0.000  0.000  0.000  0.000  0.000  0.000  0.000  0.000  0.000  0.000  0.000  0.000  0.000  0.000  0.000  0.000  0.000
  4  0.000  0.001  0.000  0.000  0.000  0.000  0.000  0.000  0.000  0.000  0.000  0.000  0.000  0.000  0.000  0.000  0.001
  5  0.000  0.000  0.002  0.000  0.000  0.000  0.000  0.000  0.000  0.000  0.000  0.000  0.000  0.000  0.000  0.000  0.002
tot  0.000  0.299  0.596  0.102  0.000  0.000  0.000  0.000  0.000  0.000  0.000  0.000  0.000  0.000  0.000  0.000  0.997

 
band   4 # energy  -25.07142491 # occ.  1.00000000
 
ion      s     py     pz     px    dxy    dyz    dz2    dxz    dx2    f-3    f-2    f-1     f0     f1     f2     f3    tot
  1  0.963  0.000  0.000  0.000  0.000  0.000  0.000  0.000  0.000  0.000  0.000  0.000  0.000  0.000  0.000  0.000  0.963
  2  0.000  0.000  0.000  0.000  0.000  0.000  0.000  0.000  0.000  0.000  0.000  0.000  0.000  0.000  0.000  0.000  0.000
  3  0.001  0.000  0.000  0.000  0.000  0.000  0.000  0.000  0.000  0.000  0.000  0.000  0.000  0.000  0.000  0.000  0.001
  4  0.001  0.000  0.000  0.000  0.000  0.000  0.000  0.000  0.000  0.000  0.000  0.000  0.000  0.000  0.000  0.000  0.001
  5  0.001  0.000  0.000  0.000  0.000  0.000  0.000  0.000  0.000  0.000  0.000  0.000  0.000  0.000  0.000  0.000  0.001
tot  0.967  0.000  0.000  0.000  0.000  0.000  0.000  0.000  0.000  0.000  0.000  0.000  0.000  0.000  0.000  0.000  0.967

 
band   5 # energy  -11.62619846 # occ.  1.00000000
 
ion      s     py     pz     px    dxy    dyz    dz2    dxz    dx2    f-3    f-2    f-1     f0     f1     f2     f3    tot
  1  0.013  0.010  0.010  0.010  0.000  0.000  0.000  0.000  0.000  0.000  0.000  0.000  0.000  0.000  0.000  0.000  0.043
  2  0.053  0.000  0.000  0.000  0.000  0.000  0.000  0.000  0.000  0.000  0.000  0.000  0.000  0.000  0.000  0.000  0.054
  3  0.274  0.000  0.000  0.000  0.000  0.000  0.000  0.000  0.000  0.000  0.000  0.000  0.000  0.000  0.000  0.000  0.274
  4  0.274  0.000  0.000  0.000  0.000  0.000  0.000  0.000  0.000  0.000  0.000  0.000  0.000  0.000  0.000  0.000  0.274
  5  0.274  0.000  0.000  0.000  0.000  0.000  0.000  0.000  0.000  0.000  0.000  0.000  0.000  0.000  0.000  0.000  0.274
tot  0.888  0.010  0.010  0.010  0.000  0.000  0.000  0.000  0.000  0.000  0.000  0.000  0.000  0.000  0.000  0.000  0.919

 
band   6 # energy  -10.46134797 # occ.  1.00000000
 
ion      s     py     pz     px    dxy    dyz    dz2    dxz    dx2    f-3    f-2    f-1     f0     f1     f2     f3    tot
  1  0.000  0.011  0.000  0.015  0.000  0.000  0.000  0.000  0.003  0.000  0.000  0.000  0.000  0.000  0.000  0.000  0.030
  2  0.000  0.001  0.000  0.001  0.000  0.000  0.001  0.000  0.050  0.000  0.000  0.000  0.000  0.000  0.000  0.000  0.054
  3  0.507  0.000  0.000  0.000  0.000  0.000  0.000  0.000  0.000  0.000  0.000  0.000  0.000  0.000  0.000  0.000  0.507
  4  0.362  0.000  0.000  0.000  0.000  0.000  0.000  0.000  0.000  0.000  0.000  0.000  0.000  0.000  0.000  0.000  0.362
  5  0.016  0.000  0.000  0.000  0.000  0.000  0.000  0.000  0.000  0.000  0.000  0.000  0.000  0.000  0.000  0.000  0.016
tot  0.884  0.012  0.001  0.017  0.000  0.000  0.001  0.000  0.054  0.000  0.000  0.000  0.000  0.000  0.000  0.000  0.969

 
band   7 # energy  -10.46134171 # occ.  1.00000000
 
ion      s     py     pz     px    dxy    dyz    dz2    dxz    dx2    f-3    f-2    f-1     f0     f1     f2     f3    tot
  1  0.000  0.007  0.017  0.003  0.000  0.000  0.003  0.000  0.000  0.000  0.000  0.000  0.000  0.000  0.000  0.000  0.030
  2  0.000  0.001  0.001  0.000  0.000  0.000  0.050  0.000  0.001  0.000  0.000  0.000  0.000  0.000  0.000  0.000  0.054
  3  0.083  0.000  0.000  0.000  0.000  0.000  0.000  0.000  0.000  0.000  0.000  0.000  0.000  0.000  0.000  0.000  0.084
  4  0.228  0.000  0.000  0.000  0.000  0.000  0.000  0.000  0.000  0.000  0.000  0.000  0.000  0.000  0.000  0.000  0.228
  5  0.574  0.000  0.000  0.000  0.000  0.000  0.000  0.000  0.000  0.000  0.000  0.000  0.000  0.000  0.000  0.000  0.574
tot  0.885  0.008  0.019  0.003  0.000  0.000  0.054  0.000  0.001  0.000  0.000  0.000  0.000  0.000  0.000  0.000  0.969

 
band   8 # energy   -8.59790980 # occ.  1.00000000
 
ion      s     py     pz     px    dxy    dyz    dz2    dxz    dx2    f-3    f-2    f-1     f0     f1     f2     f3    tot
  1  0.000  0.412  0.268  0.208  0.000  0.000  0.000  0.000  0.000  0.000  0.000  0.000  0.000  0.000  0.000  0.000  0.887
  2  0.000  0.000  0.000  0.000  0.000  0.000  0.001  0.000  0.001  0.000  0.000  0.000  0.000  0.000  0.000  0.000  0.003
  3  0.007  0.003  0.002  0.000  0.000  0.000  0.000  0.000  0.000  0.000  0.000  0.000  0.000  0.000  0.000  0.000  0.013
  4  0.015  0.001  0.002  0.001  0.000  0.000  0.000  0.000  0.000  0.000  0.000  0.000  0.000  0.000  0.000  0.000  0.018
  5  0.010  0.003  0.000  0.002  0.000  0.000  0.000  0.000  0.000  0.000  0.000  0.000  0.000  0.000  0.000  0.000  0.014
tot  0.032  0.418  0.272  0.211  0.000  0.000  0.001  0.000  0.001  0.000  0.000  0.000  0.000  0.000  0.000  0.000  0.936

 
band   9 # energy   -8.59790574 # occ.  1.00000000
 
ion      s     py     pz     px    dxy    dyz    dz2    dxz    dx2    f-3    f-2    f-1     f0     f1     f2     f3    tot
  1  0.000  0.180  0.324  0.384  0.000  0.000  0.000  0.000  0.000  0.000  0.000  0.000  0.000  0.000  0.000  0.000  0.887
  2  0.000  0.000  0.000  0.000  0.000  0.000  0.001  0.000  0.001  0.000  0.000  0.000  0.000  0.000  0.000  0.000  0.003
  3  0.014  0.001  0.002  0.000  0.000  0.000  0.000  0.000  0.000  0.000  0.000  0.000  0.000  0.000  0.000  0.000  0.018
  4  0.006  0.000  0.002  0.003  0.000  0.000  0.000  0.000  0.000  0.000  0.000  0.000  0.000  0.000  0.000  0.000  0.012
  5  0.012  0.001  0.000  0.003  0.000  0.000  0.000  0.000  0.000  0.000  0.000  0.000  0.000  0.000  0.000  0.000  0.016
tot  0.032  0.183  0.329  0.390  0.000  0.000  0.001  0.000  0.001  0.000  0.000  0.000  0.000  0.000  0.000  0.000  0.936

 
band  10 # energy   -8.49821489 # occ.  1.00000000
 
ion      s     py     pz     px    dxy    dyz    dz2    dxz    dx2    f-3    f-2    f-1     f0     f1     f2     f3    tot
  1  0.000  0.297  0.297  0.297  0.000  0.000  0.000  0.000  0.000  0.000  0.000  0.000  0.000  0.000  0.000  0.000  0.891
  2  0.002  0.000  0.000  0.000  0.000  0.000  0.000  0.000  0.000  0.000  0.000  0.000  0.000  0.000  0.000  0.000  0.003
  3  0.012  0.002  0.002  0.000  0.000  0.000  0.000  0.000  0.000  0.000  0.000  0.000  0.000  0.000  0.000  0.000  0.015
  4  0.012  0.000  0.002  0.002  0.000  0.000  0.000  0.000  0.000  0.000  0.000  0.000  0.000  0.000  0.000  0.000  0.015
  5  0.012  0.002  0.000  0.002  0.000  0.000  0.000  0.000  0.000  0.000  0.000  0.000  0.000  0.000  0.000  0.000  0.015
tot  0.037  0.301  0.301  0.301  0.000  0.000  0.000  0.000  0.000  0.000  0.000  0.000  0.000  0.000  0.000  0.000  0.940

 
band  11 # energy    2.17577925 # occ.  1.00000000
 
ion      s     py     pz     px    dxy    dyz    dz2    dxz    dx2    f-3    f-2    f-1     f0     f1     f2     f3    tot
  1  0.003  0.009  0.009  0.009  0.002  0.002  0.000  0.002  0.000  0.002  0.000  0.001  0.003  0.001  0.000  0.002  0.045
  2  0.010  0.027  0.027  0.027  0.024  0.024  0.000  0.024  0.000  0.000  0.000  0.000  0.000  0.000  0.000  0.000  0.164
  3  0.000  0.047  0.047  0.123  0.000  0.000  0.000  0.000  0.000  0.000  0.000  0.000  0.000  0.000  0.000  0.000  0.216
  4  0.000  0.123  0.047  0.047  0.000  0.000  0.000  0.000  0.000  0.000  0.000  0.000  0.000  0.000  0.000  0.000  0.216
  5  0.000  0.047  0.123  0.047  0.000  0.000  0.000  0.000  0.000  0.000  0.000  0.000  0.000  0.000  0.000  0.000  0.216
tot  0.013  0.252  0.252  0.252  0.026  0.026  0.000  0.026  0.000  0.002  0.000  0.001  0.003  0.001  0.000  0.002  0.859

 
band  12 # energy    2.36213934 # occ.  1.00000000
 
ion      s     py     pz     px    dxy    dyz    dz2    dxz    dx2    f-3    f-2    f-1     f0     f1     f2     f3    tot
  1  0.000  0.006  0.010  0.012  0.000  0.000  0.000  0.000  0.000  0.001  0.000  0.001  0.003  0.002  0.000  0.002  0.038
  2  0.000  0.019  0.032  0.039  0.009  0.011  0.043  0.005  0.037  0.000  0.000  0.000  0.000  0.000  0.000  0.000  0.194
  3  0.000  0.022  0.036  0.193  0.000  0.000  0.000  0.000  0.000  0.000  0.000  0.000  0.000  0.000  0.000  0.000  0.251
  4  0.000  0.093  0.040  0.048  0.000  0.000  0.000  0.000  0.000  0.000  0.000  0.000  0.000  0.000  0.000  0.000  0.181
  5  0.000  0.023  0.160  0.045  0.000  0.000  0.000  0.000  0.000  0.000  0.000  0.000  0.000  0.000  0.000  0.000  0.228
tot  0.001  0.162  0.278  0.337  0.009  0.011  0.043  0.005  0.037  0.001  0.000  0.001  0.003  0.002  0.000  0.002  0.893

 
band  13 # energy    2.36214319 # occ.  1.00000000
 
ion      s     py     pz     px    dxy    dyz    dz2    dxz    dx2    f-3    f-2    f-1     f0     f1     f2     f3    tot
  1  0.000  0.013  0.009  0.007  0.000  0.000  0.000  0.000  0.000  0.002  0.000  0.002  0.003  0.001  0.000  0.001  0.038
  2  0.000  0.041  0.028  0.021  0.008  0.006  0.037  0.011  0.043  0.000  0.000  0.000  0.000  0.000  0.000  0.000  0.194
  3  0.000  0.049  0.035  0.104  0.000  0.000  0.000  0.000  0.000  0.000  0.000  0.000  0.000  0.000  0.000  0.000  0.189
  4  0.000  0.204  0.031  0.024  0.000  0.000  0.000  0.000  0.000  0.000  0.000  0.000  0.000  0.000  0.000  0.000  0.259
  5  0.000  0.048  0.138  0.026  0.000  0.000  0.000  0.000  0.000  0.000  0.000  0.000  0.000  0.000  0.000  0.000  0.212
tot  0.001  0.356  0.240  0.181  0.008  0.006  0.037  0.012  0.043  0.002  0.000  0.002  0.003  0.001  0.000  0.001  0.893

 
band  14 # energy    2.85597294 # occ.  1.00000000
 
ion      s     py     pz     px    dxy    dyz    dz2    dxz    dx2    f-3    f-2    f-1     f0     f1     f2     f3    tot
  1  0.000  0.000  0.000  0.000  0.004  0.005  0.001  0.002  0.001  0.001  0.000  0.002  0.000  0.001  0.002  0.000  0.018
  2  0.000  0.001  0.001  0.002  0.251  0.329  0.003  0.140  0.003  0.000  0.000  0.000  0.000  0.000  0.000  0.000  0.730
  3  0.000  0.030  0.020  0.011  0.000  0.000  0.000  0.000  0.000  0.000  0.000  0.000  0.000  0.000  0.000  0.000  0.061
  4  0.000  0.005  0.020  0.013  0.000  0.000  0.000  0.000  0.000  0.000  0.000  0.000  0.000  0.000  0.000  0.000  0.038
  5  0.000  0.030  0.009  0.013  0.000  0.000  0.000  0.000  0.000  0.000  0.000  0.000  0.000  0.000  0.000  0.000  0.051
tot  0.000  0.065  0.050  0.039  0.255  0.335  0.004  0.142  0.003  0.001  0.000  0.002  0.000  0.001  0.002  0.000  0.898

 
band  15 # energy    2.85597522 # occ.  1.00000000
 
ion      s     py     pz     px    dxy    dyz    dz2    dxz    dx2    f-3    f-2    f-1     f0     f1     f2     f3    tot
  1  0.000  0.000  0.000  0.000  0.004  0.002  0.001  0.005  0.001  0.000  0.000  0.001  0.000  0.001  0.002  0.001  0.018
  2  0.000  0.002  0.001  0.001  0.229  0.151  0.003  0.340  0.003  0.000  0.000  0.000  0.000  0.000  0.000  0.000  0.730
  3  0.000  0.012  0.022  0.005  0.000  0.000  0.000  0.000  0.000  0.000  0.000  0.000  0.000  0.000  0.000  0.000  0.039
  4  0.000  0.012  0.022  0.029  0.000  0.000  0.000  0.000  0.000  0.000  0.000  0.000  0.000  0.000  0.000  0.000  0.062
  5  0.000  0.012  0.008  0.029  0.000  0.000  0.000  0.000  0.000  0.000  0.000  0.000  0.000  0.000  0.000  0.000  0.049
tot  0.000  0.038  0.053  0.063  0.233  0.153  0.003  0.346  0.004  0.000  0.000  0.001  0.000  0.001  0.002  0.001  0.898

 
band  16 # energy    3.11242198 # occ.  1.00000000
 
ion      s     py     pz     px    dxy    dyz    dz2    dxz    dx2    f-3    f-2    f-1     f0     f1     f2     f3    tot
  1  0.000  0.000  0.000  0.000  0.002  0.002  0.000  0.002  0.000  0.000  0.001  0.000  0.000  0.000  0.000  0.000  0.007
  2  0.003  0.005  0.005  0.005  0.266  0.266  0.000  0.266  0.000  0.000  0.000  0.000  0.000  0.000  0.000  0.000  0.817
  3  0.000  0.000  0.000  0.033  0.000  0.000  0.000  0.000  0.000  0.000  0.000  0.000  0.000  0.000  0.000  0.000  0.033
  4  0.000  0.033  0.000  0.000  0.000  0.000  0.000  0.000  0.000  0.000  0.000  0.000  0.000  0.000  0.000  0.000  0.033
  5  0.000  0.000  0.033  0.000  0.000  0.000  0.000  0.000  0.000  0.000  0.000  0.000  0.000  0.000  0.000  0.000  0.033
tot  0.003  0.037  0.037  0.037  0.268  0.268  0.000  0.268  0.000  0.000  0.001  0.000  0.000  0.000  0.000  0.000  0.922

 
band  17 # energy    4.45690695 # occ.  1.00000000
 
ion      s     py     pz     px    dxy    dyz    dz2    dxz    dx2    f-3    f-2    f-1     f0     f1     f2     f3    tot
  1  0.000  0.000  0.000  0.000  0.000  0.002  0.001  0.002  0.015  0.001  0.000  0.003  0.000  0.007  0.023  0.003  0.057
  2  0.000  0.000  0.000  0.000  0.006  0.062  0.001  0.084  0.012  0.000  0.000  0.000  0.000  0.000  0.000  0.000  0.165
  3  0.000  0.055  0.191  0.002  0.000  0.000  0.000  0.000  0.000  0.000  0.000  0.000  0.000  0.000  0.000  0.000  0.248
  4  0.000  0.003  0.204  0.107  0.000  0.000  0.000  0.000  0.000  0.000  0.000  0.000  0.000  0.000  0.000  0.000  0.314
  5  0.000  0.021  0.000  0.060  0.000  0.000  0.000  0.000  0.000  0.000  0.000  0.000  0.000  0.000  0.000  0.000  0.081
tot  0.000  0.080  0.395  0.169  0.006  0.064  0.002  0.087  0.027  0.001  0.000  0.003  0.000  0.007  0.023  0.003  0.866

 
band  18 # energy    4.45691143 # occ.  1.00000000
 
ion      s     py     pz     px    dxy    dyz    dz2    dxz    dx2    f-3    f-2    f-1     f0     f1     f2     f3    tot
  1  0.000  0.000  0.000  0.000  0.003  0.001  0.015  0.000  0.001  0.008  0.000  0.012  0.000  0.008  0.001  0.007  0.057
  2  0.000  0.000  0.000  0.000  0.096  0.039  0.012  0.017  0.001  0.000  0.000  0.000  0.000  0.000  0.000  0.000  0.165
  3  0.000  0.158  0.022  0.001  0.000  0.000  0.000  0.000  0.000  0.000  0.000  0.000  0.000  0.000  0.000  0.000  0.181
  4  0.000  0.001  0.009  0.106  0.000  0.000  0.000  0.000  0.000  0.000  0.000  0.000  0.000  0.000  0.000  0.000  0.115
  5  0.000  0.191  0.004  0.153  0.000  0.000  0.000  0.000  0.000  0.000  0.000  0.000  0.000  0.000  0.000  0.000  0.348
tot  0.000  0.350  0.034  0.260  0.098  0.041  0.027  0.018  0.002  0.008  0.000  0.012  0.000  0.008  0.001  0.007  0.866

 
band  19 # energy    4.48259785 # occ.  1.00000000
 
ion      s     py     pz     px    dxy    dyz    dz2    dxz    dx2    f-3    f-2    f-1     f0     f1     f2     f3    tot
  1  0.000  0.000  0.000  0.000  0.000  0.000  0.000  0.000  0.000  0.007  0.000  0.012  0.000  0.012  0.019  0.007  0.058
  2  0.000  0.000  0.000  0.000  0.000  0.000  0.000  0.000  0.000  0.000  0.000  0.000  0.000  0.000  0.000  0.000  0.000
  3  0.000  0.134  0.134  0.000  0.000  0.000  0.000  0.000  0.000  0.000  0.000  0.000  0.000  0.000  0.000  0.000  0.268
  4  0.000  0.000  0.134  0.134  0.000  0.000  0.000  0.000  0.000  0.000  0.000  0.000  0.000  0.000  0.000  0.000  0.268
  5  0.000  0.134  0.000  0.134  0.000  0.000  0.000  0.000  0.000  0.000  0.000  0.000  0.000  0.000  0.000  0.000  0.268
tot  0.000  0.268  0.268  0.268  0.000  0.000  0.000  0.000  0.000  0.007  0.000  0.012  0.000  0.012  0.019  0.007  0.863

 
band  20 # energy    4.90237820 # occ.  1.00000000
 
ion      s     py     pz     px    dxy    dyz    dz2    dxz    dx2    f-3    f-2    f-1     f0     f1     f2     f3    tot
  1  0.000  0.004  0.008  0.003  0.001  0.000  0.000  0.000  0.000  0.001  0.000  0.001  0.003  0.001  0.000  0.001  0.023
  2  0.000  0.000  0.000  0.000  0.011  0.005  0.300  0.006  0.090  0.000  0.000  0.000  0.000  0.000  0.000  0.000  0.412
  3  0.005  0.064  0.102  0.017  0.000  0.000  0.000  0.000  0.000  0.000  0.000  0.000  0.000  0.000  0.000  0.000  0.188
  4  0.006  0.019  0.100  0.057  0.000  0.000  0.000  0.000  0.000  0.000  0.000  0.000  0.000  0.000  0.000  0.000  0.182
  5  0.011  0.042  0.038  0.037  0.000  0.000  0.000  0.000  0.000  0.000  0.000  0.000  0.000  0.000  0.000  0.000  0.128
tot  0.022  0.129  0.248  0.115  0.012  0.005  0.300  0.006  0.090  0.001  0.000  0.001  0.003  0.001  0.000  0.001  0.934

 
band  21 # energy    4.90238389 # occ.  1.00000000
 
ion      s     py     pz     px    dxy    dyz    dz2    dxz    dx2    f-3    f-2    f-1     f0     f1     f2     f3    tot
  1  0.000  0.006  0.002  0.006  0.000  0.001  0.000  0.001  0.000  0.002  0.000  0.001  0.001  0.001  0.001  0.002  0.023
  2  0.000  0.000  0.000  0.000  0.003  0.009  0.090  0.009  0.300  0.000  0.000  0.000  0.000  0.000  0.000  0.000  0.412
  3  0.010  0.070  0.032  0.032  0.000  0.000  0.000  0.000  0.000  0.000  0.000  0.000  0.000  0.000  0.000  0.000  0.144
  4  0.009  0.030  0.034  0.077  0.000  0.000  0.000  0.000  0.000  0.000  0.000  0.000  0.000  0.000  0.000  0.000  0.150
  5  0.003  0.092  0.011  0.097  0.000  0.000  0.000  0.000  0.000  0.000  0.000  0.000  0.000  0.000  0.000  0.000  0.204
tot  0.022  0.199  0.080  0.212  0.004  0.010  0.090  0.009  0.300  0.002  0.000  0.001  0.001  0.001  0.001  0.002  0.934

 
band  22 # energy    5.23007592 # occ.  1.00000000
 
ion      s     py     pz     px    dxy    dyz    dz2    dxz    dx2    f-3    f-2    f-1     f0     f1     f2     f3    tot
  1  0.006  0.002  0.002  0.002  0.002  0.002  0.000  0.002  0.000  0.001  0.000  0.000  0.001  0.000  0.000  0.001  0.023
  2  0.011  0.005  0.005  0.005  0.016  0.016  0.000  0.016  0.000  0.000  0.000  0.000  0.000  0.000  0.000  0.000  0.074
  3  0.003  0.078  0.078  0.116  0.000  0.000  0.000  0.000  0.000  0.000  0.000  0.000  0.000  0.000  0.000  0.000  0.276
  4  0.003  0.116  0.078  0.078  0.000  0.000  0.000  0.000  0.000  0.000  0.000  0.000  0.000  0.000  0.000  0.000  0.276
  5  0.003  0.078  0.116  0.078  0.000  0.000  0.000  0.000  0.000  0.000  0.000  0.000  0.000  0.000  0.000  0.000  0.276
tot  0.027  0.280  0.280  0.280  0.018  0.018  0.000  0.018  0.000  0.001  0.000  0.000  0.001  0.000  0.000  0.001  0.925

 
band  23 # energy    6.25531201 # occ.  1.00038420
 
ion      s     py     pz     px    dxy    dyz    dz2    dxz    dx2    f-3    f-2    f-1     f0     f1     f2     f3    tot
  1  0.000  0.000  0.002  0.001  0.000  0.000  0.001  0.000  0.000  0.000  0.000  0.000  0.000  0.000  0.000  0.000  0.006
  2  0.000  0.001  0.013  0.010  0.001  0.001  0.374  0.000  0.073  0.000  0.000  0.000  0.000  0.000  0.000  0.000  0.473
  3  0.007  0.002  0.050  0.122  0.000  0.000  0.000  0.000  0.000  0.000  0.000  0.000  0.000  0.000  0.000  0.000  0.182
  4  0.000  0.008  0.048  0.035  0.000  0.000  0.000  0.000  0.000  0.000  0.000  0.000  0.000  0.000  0.000  0.000  0.090
  5  0.010  0.003  0.164  0.038  0.000  0.000  0.000  0.000  0.000  0.000  0.000  0.000  0.000  0.000  0.000  0.000  0.215
tot  0.017  0.013  0.277  0.207  0.001  0.001  0.376  0.000  0.073  0.000  0.000  0.000  0.000  0.000  0.000  0.000  0.966

 
band  24 # energy    6.25532285 # occ.  1.05489787
 
ion      s     py     pz     px    dxy    dyz    dz2    dxz    dx2    f-3    f-2    f-1     f0     f1     f2     f3    tot
  1  0.000  0.002  0.000  0.001  0.000  0.000  0.000  0.000  0.001  0.000  0.000  0.000  0.000  0.000  0.000  0.000  0.006
  2  0.000  0.015  0.003  0.006  0.000  0.000  0.073  0.001  0.374  0.000  0.000  0.000  0.000  0.000  0.000  0.000  0.473
  3  0.004  0.057  0.008  0.074  0.000  0.000  0.000  0.000  0.000  0.000  0.000  0.000  0.000  0.000  0.000  0.000  0.143
  4  0.011  0.188  0.011  0.024  0.000  0.000  0.000  0.000  0.000  0.000  0.000  0.000  0.000  0.000  0.000  0.000  0.234
  5  0.002  0.056  0.032  0.020  0.000  0.000  0.000  0.000  0.000  0.000  0.000  0.000  0.000  0.000  0.000  0.000  0.110
tot  0.017  0.318  0.054  0.125  0.000  0.001  0.073  0.001  0.376  0.000  0.000  0.000  0.000  0.000  0.000  0.000  0.966

 
band  25 # energy    9.23547184 # occ.  0.00000000
 
ion      s     py     pz     px    dxy    dyz    dz2    dxz    dx2    f-3    f-2    f-1     f0     f1     f2     f3    tot
  1  0.000  0.000  0.000  0.000  0.001  0.000  0.202  0.000  0.159  0.044  0.000  0.043  0.064  0.055  0.032  0.042  0.644
  2  0.000  0.000  0.000  0.000  0.000  0.000  0.001  0.000  0.000  0.000  0.000  0.000  0.000  0.000  0.000  0.000  0.002
  3  0.010  0.002  0.002  0.001  0.000  0.000  0.000  0.000  0.000  0.000  0.000  0.000  0.000  0.000  0.000  0.000  0.014
  4  0.007  0.000  0.001  0.001  0.000  0.000  0.000  0.000  0.000  0.000  0.000  0.000  0.000  0.000  0.000  0.000  0.009
  5  0.010  0.002  0.001  0.001  0.000  0.000  0.000  0.000  0.000  0.000  0.000  0.000  0.000  0.000  0.000  0.000  0.014
tot  0.027  0.004  0.004  0.004  0.001  0.001  0.203  0.000  0.159  0.044  0.000  0.043  0.064  0.055  0.032  0.042  0.684

 
band  26 # energy    9.23738722 # occ.  0.00000000
 
ion      s     py     pz     px    dxy    dyz    dz2    dxz    dx2    f-3    f-2    f-1     f0     f1     f2     f3    tot
  1  0.000  0.001  0.000  0.000  0.000  0.000  0.164  0.001  0.211  0.053  0.001  0.035  0.044  0.036  0.044  0.044  0.634
  2  0.000  0.000  0.000  0.000  0.000  0.000  0.001  0.000  0.001  0.000  0.000  0.000  0.000  0.000  0.000  0.000  0.002
  3  0.008  0.001  0.001  0.000  0.000  0.000  0.000  0.000  0.000  0.000  0.000  0.000  0.000  0.000  0.000  0.000  0.010
  4  0.012  0.001  0.002  0.002  0.000  0.000  0.000  0.000  0.000  0.000  0.000  0.000  0.000  0.000  0.000  0.000  0.016
  5  0.008  0.001  0.000  0.002  0.000  0.000  0.000  0.000  0.000  0.000  0.000  0.000  0.000  0.000  0.000  0.000  0.012
tot  0.028  0.003  0.004  0.004  0.001  0.000  0.165  0.001  0.211  0.053  0.001  0.035  0.044  0.036  0.044  0.044  0.674

 
band  27 # energy    9.59462366 # occ.  0.00000000
 
ion      s     py     pz     px    dxy    dyz    dz2    dxz    dx2    f-3    f-2    f-1     f0     f1     f2     f3    tot
  1  0.000  0.000  0.000  0.000  0.000  0.000  0.002  0.000  0.003  0.012  0.876  0.028  0.014  0.004  0.004  0.025  0.968
  2  0.000  0.000  0.000  0.000  0.001  0.001  0.000  0.000  0.000  0.000  0.000  0.000  0.000  0.000  0.000  0.000  0.002
  3  0.000  0.001  0.000  0.000  0.000  0.000  0.000  0.000  0.000  0.000  0.000  0.000  0.000  0.000  0.000  0.000  0.001
  4  0.000  0.000  0.000  0.000  0.000  0.000  0.000  0.000  0.000  0.000  0.000  0.000  0.000  0.000  0.000  0.000  0.000
  5  0.000  0.000  0.000  0.001  0.000  0.000  0.000  0.000  0.000  0.000  0.000  0.000  0.000  0.000  0.000  0.000  0.001
tot  0.000  0.001  0.000  0.001  0.001  0.001  0.002  0.000  0.003  0.012  0.876  0.028  0.014  0.004  0.004  0.025  0.972

 
band  28 # energy    9.71517641 # occ.  0.00000000
 
ion      s     py     pz     px    dxy    dyz    dz2    dxz    dx2    f-3    f-2    f-1     f0     f1     f2     f3    tot
  1  0.000  0.000  0.000  0.000  0.001  0.001  0.000  0.001  0.000  0.180  0.003  0.089  0.324  0.146  0.001  0.223  0.969
  2  0.000  0.000  0.000  0.000  0.000  0.000  0.000  0.000  0.000  0.000  0.000  0.000  0.000  0.000  0.000  0.000  0.001
  3  0.000  0.002  0.002  0.001  0.000  0.000  0.000  0.000  0.000  0.000  0.000  0.000  0.000  0.000  0.000  0.000  0.004
  4  0.000  0.000  0.002  0.003  0.000  0.000  0.000  0.000  0.000  0.000  0.000  0.000  0.000  0.000  0.000  0.000  0.006
  5  0.000  0.002  0.001  0.002  0.000  0.000  0.000  0.000  0.000  0.000  0.000  0.000  0.000  0.000  0.000  0.000  0.005
tot  0.000  0.004  0.005  0.006  0.001  0.001  0.000  0.001  0.000  0.180  0.003  0.089  0.324  0.146  0.001  0.223  0.984

 
band  29 # energy    9.76899993 # occ.  0.00000000
 
ion      s     py     pz     px    dxy    dyz    dz2    dxz    dx2    f-3    f-2    f-1     f0     f1     f2     f3    tot
  1  0.000  0.000  0.000  0.000  0.001  0.001  0.009  0.001  0.009  0.229  0.000  0.114  0.202  0.170  0.109  0.110  0.955
  2  0.000  0.000  0.000  0.000  0.000  0.000  0.000  0.000  0.000  0.000  0.000  0.000  0.000  0.000  0.000  0.000  0.001
  3  0.000  0.002  0.002  0.000  0.000  0.000  0.000  0.000  0.000  0.000  0.000  0.000  0.000  0.000  0.000  0.000  0.005
  4  0.001  0.000  0.004  0.003  0.000  0.000  0.000  0.000  0.000  0.000  0.000  0.000  0.000  0.000  0.000  0.000  0.009
  5  0.001  0.004  0.000  0.002  0.000  0.000  0.000  0.000  0.000  0.000  0.000  0.000  0.000  0.000  0.000  0.000  0.007
tot  0.002  0.006  0.006  0.006  0.001  0.001  0.009  0.001  0.009  0.229  0.000  0.114  0.202  0.170  0.109  0.110  0.976

 
band  30 # energy    9.91169823 # occ.  0.00000000
 
ion      s     py     pz     px    dxy    dyz    dz2    dxz    dx2    f-3    f-2    f-1     f0     f1     f2     f3    tot
  1  0.000  0.000  0.000  0.000  0.000  0.000  0.008  0.001  0.003  0.194  0.004  0.179  0.035  0.040  0.416  0.045  0.927
  2  0.000  0.000  0.000  0.000  0.000  0.000  0.000  0.000  0.000  0.000  0.000  0.000  0.000  0.000  0.000  0.000  0.000
  3  0.000  0.011  0.016  0.000  0.000  0.000  0.000  0.000  0.000  0.000  0.000  0.000  0.000  0.000  0.000  0.000  0.027
  4  0.000  0.000  0.011  0.002  0.000  0.000  0.000  0.000  0.000  0.000  0.000  0.000  0.000  0.000  0.000  0.000  0.013
  5  0.000  0.014  0.000  0.002  0.000  0.000  0.000  0.000  0.000  0.000  0.000  0.000  0.000  0.000  0.000  0.000  0.017
tot  0.001  0.025  0.027  0.004  0.001  0.001  0.008  0.001  0.003  0.194  0.004  0.179  0.035  0.040  0.416  0.045  0.984

 
band  31 # energy    9.94980245 # occ.  0.00000000
 
ion      s     py     pz     px    dxy    dyz    dz2    dxz    dx2    f-3    f-2    f-1     f0     f1     f2     f3    tot
  1  0.000  0.000  0.000  0.000  0.002  0.001  0.040  0.002  0.026  0.057  0.007  0.013  0.071  0.377  0.161  0.125  0.882
  2  0.000  0.000  0.000  0.000  0.000  0.000  0.000  0.001  0.000  0.000  0.000  0.000  0.000  0.000  0.000  0.000  0.001
  3  0.000  0.000  0.011  0.000  0.000  0.000  0.000  0.000  0.000  0.000  0.000  0.000  0.000  0.000  0.000  0.000  0.012
  4  0.001  0.000  0.005  0.023  0.000  0.000  0.000  0.000  0.000  0.000  0.000  0.000  0.000  0.000  0.000  0.000  0.029
  5  0.001  0.003  0.000  0.018  0.000  0.000  0.000  0.000  0.000  0.000  0.000  0.000  0.000  0.000  0.000  0.000  0.023
tot  0.003  0.003  0.016  0.041  0.002  0.001  0.040  0.003  0.026  0.057  0.007  0.013  0.071  0.377  0.161  0.125  0.946

 
band  32 # energy   10.01792819 # occ.  0.00000000
 
ion      s     py     pz     px    dxy    dyz    dz2    dxz    dx2    f-3    f-2    f-1     f0     f1     f2     f3    tot
  1  0.000  0.000  0.000  0.000  0.002  0.003  0.064  0.001  0.069  0.147  0.000  0.133  0.063  0.114  0.171  0.066  0.832
  2  0.000  0.000  0.000  0.000  0.000  0.001  0.000  0.000  0.000  0.000  0.000  0.000  0.000  0.000  0.000  0.000  0.001
  3  0.003  0.013  0.007  0.000  0.000  0.000  0.000  0.000  0.000  0.000  0.000  0.000  0.000  0.000  0.000  0.000  0.023
  4  0.001  0.000  0.015  0.008  0.000  0.000  0.000  0.000  0.000  0.000  0.000  0.000  0.000  0.000  0.000  0.000  0.024
  5  0.002  0.017  0.000  0.005  0.000  0.000  0.000  0.000  0.000  0.000  0.000  0.000  0.000  0.000  0.000  0.000  0.023
tot  0.006  0.030  0.022  0.013  0.002  0.003  0.064  0.001  0.069  0.147  0.000  0.133  0.063  0.114  0.171  0.066  0.903

 

 k-point    2 :    0.25000000 0.08333333 0.08333333     weight = 0.11111111

band   1 # energy  -42.75000298 # occ.  1.00000000
 
ion      s     py     pz     px    dxy    dyz    dz2    dxz    dx2    f-3    f-2    f-1     f0     f1     f2     f3    tot
  1  0.000  0.000  0.000  0.000  0.000  0.000  0.000  0.000  0.000  0.000  0.000  0.000  0.000  0.000  0.000  0.000  0.000