<?xml version="1.0" encoding="ISO-8859-1"?>
<modeling>
 <generator>
  <i name="program" type="string">vasp </i>
  <i name="version" type="string">5.4.1  </i>
  <i name="subversion" type="string">24Jun15 (build Jan 06 2016 13:10:00) complex                          parallel </i>
  <i name="platform" type="string">IFC91_ompi </i>
  <i name="date" type="string">2016 03 01 </i>
  <i name="time" type="string">14:26:32 </i>
 </generator>
 <incar>
  <i type="string" name="PREC">accurate</i>
  <i type="string" name="ALGO"> Fast</i>
  <i type="int" name="ISPIN">     2</i>
  <i type="int" name="ICHARG">     1</i>
  <i type="int" name="NELM">   100</i>
  <i type="int" name="IBRION">     2</i>
  <i name="EDIFF">      0.00100000</i>
  <i type="int" name="NSW">    99</i>
  <i type="int" name="ISIF">     3</i>
  <i name="ENCUT">    520.00000000</i>
  <v name="MAGMOM">      0.60000000      5.00000000      0.60000000      0.60000000      0.60000000</v>
  <i type="string" name="LREAL"> Auto</i>
  <i type="int" name="ISMEAR">    -5</i>
  <i name="SIGMA">      0.05000000</i>
  <i type="int" name="LMAXMIX">     6</i>
  <i type="logical" name="LWAVE"> F  </i>
  <i type="logical" name="LORBIT"> F  </i>
  <v type="int" name="KPOINT_BSE">    -1     0     0     0</v>
  <i type="int" name="NELM">   100</i>
  <i type="logical" name="LDAU"> T  </i>
  <v type="int" name="LDAUTYPE">     2</v>
  <v type="int" name="LDAUL">     0     2     0</v>
  <v name="LDAUU">      0.00000000      3.90000000      0.00000000</v>
  <v name="LDAUJ">      0.00000000      0.00000000      0.00000000</v>
  <i type="int" name="LDAUPRINT">     1</i>
 </incar>
 <kpoints>
  <generation param="Monkhorst-Pack">
   <v type="int" name="divisions">       6        6        6 </v>
   <v name="usershift">      0.00000000       0.00000000       0.00000000 </v>
   <v name="genvec1">      0.16666667       0.00000000       0.00000000 </v>
   <v name="genvec2">      0.00000000       0.16666667       0.00000000 </v>
   <v name="genvec3">      0.00000000       0.00000000       0.16666667 </v>
   <v name="shift">      0.50000000       0.50000000       0.50000000 </v>
  </generation>
  <varray name="kpointlist" >
   <v>       0.08333333       0.08333333       0.08333333 </v>
   <v>       0.25000000       0.08333333       0.08333333 </v>
   <v>       0.41666667       0.08333333       0.08333333 </v>
   <v>       0.25000000       0.25000000       0.08333333 </v>
   <v>       0.41666667       0.25000000       0.08333333 </v>
   <v>       0.41666667       0.41666667       0.08333333 </v>
   <v>       0.25000000       0.25000000       0.25000000 </v>
   <v>       0.41666667       0.25000000       0.25000000 </v>
   <v>       0.41666667       0.41666667       0.25000000 </v>
   <v>       0.41666667       0.41666667       0.41666667 </v>
  </varray>
  <varray name="weights" >
   <v>       0.03703704 </v>
   <v>       0.11111111 </v>
   <v>       0.11111111 </v>
   <v>       0.11111111 </v>
   <v>       0.22222222 </v>
   <v>       0.11111111 </v>
   <v>       0.03703704 </v>
   <v>       0.11111111 </v>
   <v>       0.11111111 </v>
   <v>       0.03703704 </v>
  </varray>
  <varray name="tetrahedronlist"  type="int" >
   <v type="int" >       24        1        2        2        4 </v>
   <v type="int" >       18        2        2        4        4 </v>
   <v type="int" >       12        2        4        4        7 </v>
   <v type="int" >       12        2        3        4        5 </v>
   <v type="int" >       24        2        4        4        5 </v>
   <v type="int" >       12        4        4        5        7 </v>
   <v type="int" >       24        3        4        5        5 </v>
   <v type="int" >       24        4        5        5        8 </v>
   <v type="int" >       24        4        5        7        8 </v>
   <v type="int" >       30        3        3        5        5 </v>
   <v type="int" >       36        3        5        5        5 </v>
   <v type="int" >       12        5        5        5        8 </v>
   <v type="int" >        6        5        5        8        8 </v>
   <v type="int" >       18        1        1        2        2 </v>
   <v type="int" >       24        1        2        2        2 </v>
   <v type="int" >       12        2        2        2        4 </v>
   <v type="int" >       12        4        5        6        7 </v>
   <v type="int" >       12        5        6        7        8 </v>
   <v type="int" >       12        6        7        8        9 </v>
   <v type="int" >       24        5        5        6        8 </v>
   <v type="int" >       12        5        6        6        8 </v>
   <v type="int" >       12        6        6        8        9 </v>
   <v type="int" >       12        5        6        8        8 </v>
   <v type="int" >       12        6        8        8        9 </v>
   <v type="int" >       12        6        8        9        9 </v>
   <v type="int" >       12        5        6        8        9 </v>
   <v type="int" >       12        5        7        8        8 </v>
   <v type="int" >       24        5        8        8        9 </v>
   <v type="int" >       12        2        3        4        7 </v>
   <v type="int" >       12        3        4        5        7 </v>
   <v type="int" >       12        3        5        7        8 </v>
   <v type="int" >       12        2        2        3        4 </v>
   <v type="int" >       12        2        3        3        4 </v>
   <v type="int" >       12        3        3        4        5 </v>
   <v type="int" >       12        2        3        4        4 </v>
   <v type="int" >       12        3        4        4        5 </v>
   <v type="int" >       12        6        6        6        9 </v>
   <v type="int" >       12        6        6        9        9 </v>
   <v type="int" >       12        6        9        9        9 </v>
   <v type="int" >       12        5        5        6        9 </v>
   <v type="int" >       12        5        6        6        9 </v>
   <v type="int" >       12        5        6        9        9 </v>
   <v type="int" >       12        5        5        8        9 </v>
   <v type="int" >       12        5        8        9        9 </v>
   <v type="int" >       12        3        3        5        8 </v>
   <v type="int" >       12        3        5        5        8 </v>
   <v type="int" >       12        3        5        8        8 </v>
   <v type="int" >       24        3        3        3        5 </v>
   <v type="int" >       12        4        5        6        9 </v>
   <v type="int" >       12        4        5        8        9 </v>
   <v type="int" >       12        4        7        8        9 </v>
   <v type="int" >       12        2        3        5        8 </v>
   <v type="int" >       12        2        4        5        8 </v>
   <v type="int" >       12        2        4        7        8 </v>
   <v type="int" >       12        2        3        3        5 </v>
   <v type="int" >       12        2        2        3        5 </v>
   <v type="int" >       12        2        2        4        5 </v>
   <v type="int" >       12        2        3        5        5 </v>
   <v type="int" >       12        2        4        5        5 </v>
   <v type="int" >       12        1        2        4        7 </v>
   <v type="int" >       12        1        1        2        4 </v>
   <v type="int" >       12        1        2        4        4 </v>
   <v type="int" >       12        1        1        1        2 </v>
   <v type="int" >       12        7        8        8        9 </v>
   <v type="int" >       18        8        8        9        9 </v>
   <v type="int" >       24        8        9        9       10 </v>
   <v type="int" >       12        8        9        9        9 </v>
   <v type="int" >       24        9        9        9       10 </v>
   <v type="int" >       18        9        9       10       10 </v>
   <v type="int" >        6        4        4        5        5 </v>
   <v type="int" >       12        4        5        5        5 </v>
   <v type="int" >       36        5        5        5        6 </v>
   <v type="int" >       30        5        5        6        6 </v>
   <v type="int" >       12        9       10       10       10 </v>
   <v type="int" >       12        8        8        9       10 </v>
   <v type="int" >       12        8        9       10       10 </v>
   <v type="int" >       24        5        6        6        6 </v>
   <v type="int" >       12        7        8        9       10 </v>
   <v type="int" >       12        4        5        5        6 </v>
   <v type="int" >       12        4        4        5        6 </v>
   <v type="int" >       12        4        5        6        6 </v>
   <v type="int" >       12        2        2        2        3 </v>
   <v type="int" >       12        2        2        3        3 </v>
   <v type="int" >       12        2        3        3        3 </v>
   <v type="int" >        6       10       10       10       10 </v>
   <v type="int" >       18        6        6        6        6 </v>
   <v type="int" >       18        3        3        3        3 </v>
   <v type="int" >        6        1        1        1        1 </v>
  </varray>
  <i name="volumeweight">      0.00077160 </i>
 </kpoints>
 <parameters>
  <separator name="general" >
   <i type="string" name="SYSTEM">unknown system</i>
   <i type="logical" name="LCOMPAT"> F  </i>
  </separator>
  <separator name="electronic" >
   <i type="string" name="PREC">accura</i>
   <i name="ENMAX">    520.00000000</i>
   <i name="ENAUG">    583.57500000</i>
   <i name="EDIFF">      0.00100000</i>
   <i type="int" name="IALGO">    68</i>
   <i type="int" name="IWAVPR">    11</i>
   <i type="int" name="NBANDS">    32</i>
   <i name="NELECT">     42.00000000</i>
   <i type="int" name="TURBO">     0</i>
   <i type="int" name="IRESTART">     0</i>
   <i type="int" name="NREBOOT">     0</i>
   <i type="int" name="NMIN">     0</i>
   <i name="EREF">      0.00000000</i>
   <separator name="electronic smearing" >
    <i type="int" name="ISMEAR">    -5</i>
    <i name="SIGMA">      0.05000000</i>
    <i name="KSPACING">      0.50000000</i>
    <i type="logical" name="KGAMMA"> T  </i>
   </separator>
   <separator name="electronic projectors" >
    <i type="logical" name="LREAL"> T  </i>
    <v name="ROPT">     -0.00025000     -0.00025000     -0.00025000</v>
    <i type="int" name="LMAXPAW">  -100</i>
    <i type="int" name="LMAXMIX">     6</i>
    <i type="logical" name="NLSPLINE"> F  </i>
   </separator>
   <separator name="electronic startup" >
    <i type="int" name="ISTART">     0</i>
    <i type="int" name="ICHARG">     1</i>
    <i type="int" name="INIWAV">     1</i>
   </separator>
   <separator name="electronic spin" >
    <i type="int" name="ISPIN">     2</i>
    <i type="logical" name="LNONCOLLINEAR"> F  </i>
    <v name="MAGMOM">      0.60000000      5.00000000      0.60000000      0.60000000      0.60000000</v>
    <i name="NUPDOWN">     -1.00000000</i>
    <i type="logical" name="LSORBIT"> F  </i>
    <v name="SAXIS">      0.00000000      0.00000000      1.00000000</v>
    <i type="logical" name="LSPIRAL"> F  </i>
    <v name="QSPIRAL">      0.00000000      0.00000000      0.00000000</v>
    <i type="logical" name="LZEROZ"> F  </i>
   </separator>
   <separator name="electronic exchange-correlation" >
    <i type="logical" name="LASPH"> F  </i>
    <i type="logical" name="LMETAGGA"> F  </i>
   </separator>
   <separator name="electronic convergence" >
    <i type="int" name="NELM">   100</i>
    <i type="int" name="NELMDL">    -5</i>
    <i type="int" name="NELMIN">     2</i>
    <i name="ENINI">    520.00000000</i>
    <separator name="electronic convergence detail" >
     <i type="logical" name="LDIAG"> T  </i>
     <i type="logical" name="LSUBROT"> F  </i>
     <i name="WEIMIN">      0.00100000</i>
     <i name="EBREAK">      0.00000781</i>
     <i name="DEPER">      0.30000000</i>
     <i type="int" name="NRMM">     4</i>
     <i name="TIME">      0.40000000</i>
    </separator>
   </separator>
   <separator name="electronic mixer" >
    <i name="AMIX">      0.40000000</i>
    <i name="BMIX">      1.00000000</i>
    <i name="AMIN">      0.10000000</i>
    <i name="AMIX_MAG">      1.60000000</i>
    <i name="BMIX_MAG">      1.00000000</i>
    <separator name="electronic mixer details" >
     <i type="int" name="IMIX">     4</i>
     <i type="logical" name="MIXFIRST"> F  </i>
     <i type="int" name="MAXMIX">   -45</i>
     <i name="WC">    100.00000000</i>
     <i type="int" name="INIMIX">     1</i>
     <i type="int" name="MIXPRE">     1</i>
     <i type="int" name="MREMOVE">     5</i>
    </separator>
   </separator>
   <separator name="electronic dipolcorrection" >
    <i type="logical" name="LDIPOL"> F  </i>
    <i type="logical" name="LMONO"> F  </i>
    <i type="int" name="IDIPOL">     0</i>
    <i name="EPSILON">      1.00000000</i>
    <v name="DIPOL">   -100.00000000   -100.00000000   -100.00000000</v>
    <i name="EFIELD">      0.00000000</i>
   </separator>
  </separator>
  <separator name="grids" >
   <i type="int" name="NGX">    30</i>
   <i type="int" name="NGY">    30</i>
   <i type="int" name="NGZ">    30</i>
   <i type="int" name="NGXF">    60</i>
   <i type="int" name="NGYF">    60</i>
   <i type="int" name="NGZF">    60</i>
   <i type="logical" name="ADDGRID"> F  </i>
  </separator>
  <separator name="ionic" >
   <i type="int" name="NSW">    99</i>
   <i type="int" name="IBRION">     2</i>
   <i type="int" name="ISIF">     3</i>
   <i name="PSTRESS">      0.00000000</i>
   <i name="EDIFFG">      0.01000000</i>
   <i type="int" name="NFREE">     1</i>
   <i name="POTIM">      0.50000000</i>
   <i name="SMASS">     -3.00000000</i>
   <i name="SCALEE">      1.00000000</i>
  </separator>
  <separator name="ionic md" >
   <i name="TEBEG">      0.00010000</i>
   <i name="TEEND">      0.00010000</i>
   <i type="int" name="NBLOCK">     1</i>
   <i type="int" name="KBLOCK">    99</i>
   <i type="int" name="NPACO">   256</i>
   <i name="APACO">     16.00000000</i>
  </separator>
  <separator name="symmetry" >
   <i type="int" name="ISYM">     2</i>
   <i name="SYMPREC">      0.00001000</i>
  </separator>
  <separator name="dos" >
   <i type="logical" name="LORBIT"> F  </i>
   <v name="RWIGS">     -1.00000000     -1.00000000     -1.00000000</v>
   <i type="int" name="NEDOS">   301</i>
   <i name="EMIN">     10.00000000</i>
   <i name="EMAX">    -10.00000000</i>
   <i name="EFERMI">      0.00000000</i>
  </separator>
  <separator name="writing" >
   <i type="int" name="NWRITE">     2</i>
   <i type="logical" name="LWAVE"> F  </i>
   <i type="logical" name="LCHARG"> T  </i>
   <i type="logical" name="LPARD"> F  </i>
   <i type="logical" name="LVTOT"> F  </i>
   <i type="logical" name="LVHAR"> F  </i>
   <i type="logical" name="LELF"> F  </i>
   <i type="logical" name="LOPTICS"> F  </i>
   <v name="STM">      0.00000000      0.00000000      0.00000000      0.00000000      0.00000000      0.00000000      0.00000000</v>
  </separator>
  <separator name="performance" >
   <i type="int" name="NPAR">     8</i>
   <i type="int" name="NSIM">     4</i>
   <i type="int" name="NBLK">    -1</i>
   <i type="logical" name="LPLANE"> T  </i>
   <i type="logical" name="LSCALAPACK"> T  </i>
   <i type="logical" name="LSCAAWARE"> F  </i>
   <i type="logical" name="LSCALU"> F  </i>
   <i type="logical" name="LASYNC"> F  </i>
   <i type="logical" name="LORBITALREAL"> F  </i>
  </separator>
  <separator name="miscellaneous" >
   <i type="int" name="IDIOT">     3</i>
   <i type="logical" name="LMUSIC"> F  </i>
   <v name="POMASS">    138.90000000     54.93800000     16.00000000</v>
   <v name="DARWINR">      0.00000000      0.00000000      0.00000000</v>
   <v name="DARWINV">      1.00000000      1.00000000      1.00000000</v>
   <i type="logical" name="LCORR"> T  </i>
  </separator>
  <i type="logical" name="GGA_COMPAT"> T  </i>
  <i type="logical" name="LBERRY"> F  </i>
  <i type="int" name="ICORELEVEL">     0</i>
  <i type="logical" name="LDAU"> T  </i>
  <v type="int" name="LDAUTYPE">     2</v>
  <v type="int" name="LDAUL">     0</v>
  <v name="LDAUU">      0.00000000</v>
  <v name="LDAUJ">      0.00000000</v>
  <i type="int" name="LDAUPRINT">     1</i>
  <i type="int" name="I_CONSTRAINED_M">     0</i>
  <separator name="electronic exchange-correlation" >
   <i type="string" name="GGA">--</i>
   <i type="int" name="VOSKOWN">     0</i>
   <i type="logical" name="LHFCALC"> F  </i>
   <i type="string" name="PRECFOCK"></i>
   <i type="logical" name="LSYMGRAD"> F  </i>
   <i type="logical" name="LHFONE"> F  </i>
   <i type="logical" name="LRHFCALC"> F  </i>
   <i type="logical" name="LTHOMAS"> F  </i>
   <i type="logical" name="LMODELHF"> F  </i>
   <i name="ENCUT4O">     -1.00000000</i>
   <i type="int" name="EXXOEP">     0</i>
   <i type="int" name="FOURORBIT">     0</i>
   <i name="AEXX">      0.00000000</i>
   <i name="HFALPHA">      0.00000000</i>
   <i name="MCALPHA">      0.00000000</i>
   <i name="ALDAX">      1.00000000</i>
   <i name="AGGAX">      1.00000000</i>
   <i name="ALDAC">      1.00000000</i>
   <i name="AGGAC">      1.00000000</i>
   <i type="int" name="NKREDX">     1</i>
   <i type="int" name="NKREDY">     1</i>
   <i type="int" name="NKREDZ">     1</i>
   <i type="logical" name="SHIFTRED"> F  </i>
   <i type="logical" name="ODDONLY"> F  </i>
   <i type="logical" name="EVENONLY"> F  </i>
   <i type="int" name="LMAXFOCK">     0</i>
   <i type="int" name="NMAXFOCKAE">     0</i>
   <i type="logical" name="LFOCKAEDFT"> F  </i>
   <i name="HFSCREEN">      0.00000000</i>
   <i name="HFSCREENC">      0.00000000</i>
   <i type="int" name="NBANDSGWLOW">     0</i>
  </separator>
  <separator name="vdW DFT" >
   <i type="logical" name="LUSE_VDW"> F  </i>
   <i name="Zab_VDW">     -0.84910000</i>
   <i name="PARAM1">      0.12340000</i>
   <i name="PARAM2">      1.00000000</i>
   <i name="PARAM3">      0.00000000</i>
  </separator>
  <separator name="model GW" >
   <i type="int" name="MODEL_GW">     0</i>
   <i name="MODEL_EPS0">      7.34046499</i>
   <i name="MODEL_ALPHA">      1.00000000</i>
  </separator>
  <separator name="linear response parameters" >
   <i type="logical" name="LEPSILON"> F  </i>
   <i type="logical" name="LRPA"> F  </i>
   <i type="logical" name="LNABLA"> F  </i>
   <i type="logical" name="LVEL"> F  </i>
   <i type="int" name="KINTER">     0</i>
   <i name="CSHIFT">      0.10000000</i>
   <i name="OMEGAMAX">     -1.00000000</i>
   <i name="DEG_THRESHOLD">      0.00200000</i>
  </separator>
  <separator name="orbital magnetization" >
   <i type="logical" name="NUCIND"> F  </i>
   <v name="MAGPOS">      0.00000000      0.00000000      0.00000000</v>
   <i type="logical" name="LNICSALL"> T  </i>
   <i type="logical" name="ORBITALMAG"> F  </i>
   <i type="logical" name="LMAGBLOCH"> F  </i>
   <i type="logical" name="LCHIMAG"> F  </i>
   <i type="logical" name="LGAUGE"> T  </i>
   <i type="int" name="MAGATOM">     0</i>
   <v name="MAGDIPOL">      0.00000000      0.00000000      0.00000000</v>
   <v name="AVECCONST">      0.00000000      0.00000000      0.00000000</v>
  </separator>
  <separator name="response functions" >
   <i type="logical" name="LADDER"> F  </i>
   <i type="logical" name="LFXC"> F  </i>
   <i type="logical" name="LHARTREE"> T  </i>
   <i type="int" name="IBSE">     0</i>
   <v type="int" name="KPOINT">    -1     0     0     0</v>
   <i type="logical" name="LTCTE"> F  </i>
   <i type="logical" name="LTETE"> F  </i>
   <i type="logical" name="LTRIPLET"> F  </i>
   <i type="logical" name="LFXCEPS"> F  </i>
   <i type="logical" name="LFXHEG"> F  </i>
   <i type="int" name="NATURALO">     0</i>
   <i type="logical" name="L2ORDER"> F  </i>
   <i type="logical" name="LUSEW"> F  </i>
   <i name="ENCUTGW">     -2.00000000</i>
   <i name="ENCUTGWSOFT">     -2.00000000</i>
   <i name="ENCUTLF">     -1.00000000</i>
   <i type="int" name="LMAXMP2">    -1</i>
   <i name="SCISSOR">      0.00000000</i>
   <i type="int" name="NOMEGA">     0</i>
   <i type="int" name="NOMEGAR">     0</i>
   <i type="int" name="NBANDSGW">    -1</i>
   <i type="int" name="NBANDSO">    -1</i>
   <i type="int" name="NBANDSV">    -1</i>
   <i type="int" name="NELM">   100</i>
   <i type="int" name="NELMHF">     1</i>
   <i type="int" name="DIM">     3</i>
   <i type="int" name="ANTIRES">     0</i>
   <i name="OMEGAMAX">    -30.00000000</i>
   <i name="OMEGAMIN">    -30.00000000</i>
   <i name="OMEGATL">   -200.00000000</i>
   <i type="int" name="OMEGAGRID">     0</i>
   <i name="CSHIFT">     -0.10000000</i>
   <i type="logical" name="SELFENERGY"> F  </i>
   <i type="logical" name="LSPECTRAL"> F  </i>
   <i type="logical" name="LSPECTRALGW"> F  </i>
   <i type="logical" name="LSINGLES"> F  </i>
   <i type="logical" name="LFERMIGW"> F  </i>
   <i type="logical" name="ODDONLYGW"> F  </i>
   <i type="logical" name="EVENONLYGW"> F  </i>
   <i type="int" name="NKREDLFX">     1</i>
   <i type="int" name="NKREDLFY">     1</i>
   <i type="int" name="NKREDLFZ">     1</i>
   <i type="int" name="MAXMEM">  1800</i>
   <i type="int" name="TELESCOPE">     0</i>
   <i type="int" name="TAUPAR">     1</i>
   <i type="int" name="OMEGAPAR">    -1</i>
   <i name="LAMBDA">      1.00000000</i>
  </separator>
  <separator name="External order field" >
   <i name="OFIELD_KAPPA">      0.00000000</i>
   <v name="OFIELD_K">      0.00000000      0.00000000      0.00000000</v>
   <i name="OFIELD_Q6_NEAR">      0.00000000</i>
   <i name="OFIELD_Q6_FAR">      0.00000000</i>
   <i name="OFIELD_A">      0.00000000</i>
  </separator>
  <separator name="solvation model" >
   <i type="logical" name="LSOL"> F  </i>
  </separator>
 </parameters>
 <atominfo>
  <atoms>       5 </atoms>
  <types>       3 </types>
  <array name="atoms" >
   <dimension dim="1">ion</dimension>
   <field type="string">element</field>
   <field type="int">atomtype</field>
   <set>
    <rc><c>La</c><c>   1</c></rc>
    <rc><c>Mn</c><c>   2</c></rc>
    <rc><c>O </c><c>   3</c></rc>
    <rc><c>O </c><c>   3</c></rc>
    <rc><c>O </c><c>   3</c></rc>
   </set>
  </array>
  <array name="atomtypes" >
   <dimension dim="1">type</dimension>
   <field type="int">atomspertype</field>
   <field type="string">element</field>
   <field>mass</field>
   <field>valence</field>
   <field type="string">pseudopotential</field>
   <set>
    <rc><c>   1</c><c>La</c><c>    138.90000000</c><c>     11.00000000</c><c>   La: PAW 5s5p 6s5d4f valence          </c></rc>
    <rc><c>   1</c><c>Mn</c><c>     54.93800000</c><c>     13.00000000</c><c>  PAW Mn                                </c></rc>
    <rc><c>   3</c><c>O </c><c>     16.00000000</c><c>      6.00000000</c><c>  PAW O_s                               </c></rc>
   </set>
  </array>
 </atominfo>
 <structure name="initialpos" >
  <crystal>
   <varray name="basis" >
    <v>       3.94016227       0.00000000       0.00000000 </v>
    <v>       0.00000000       3.94016227       0.00000000 </v>
    <v>       0.00000000       0.00000000       3.94016227 </v>
   </varray>
   <i name="volume">     61.17054158 </i>
   <varray name="rec_basis" >
    <v>       0.25379665       0.00000000       0.00000000 </v>
    <v>       0.00000000       0.25379665       0.00000000 </v>
    <v>       0.00000000       0.00000000       0.25379665 </v>
   </varray>
  </crystal>
  <varray name="positions" >
   <v>       0.00000000       0.00000000       0.00000000 </v>
   <v>       0.50000000       0.50000000       0.50000000 </v>
   <v>       0.00000000       0.50000000       0.50000000 </v>
   <v>       0.50000000       0.00000000       0.50000000 </v>
   <v>       0.50000000       0.50000000       0.00000000 </v>
  </varray>
 </structure>
 <calculation>
  <scstep>
   <time name="dav">    5.32    5.35</time>
   <time name="total">    5.71    5.74</time>
   <energy>
    <i name="alphaZ">    232.65173084 </i>
    <i name="ewald">  -3216.05931943 </i>
    <i name="hartreedc">  -1047.09065672 </i>
    <i name="XCdc">    185.21017733 </i>
    <i name="pawpsdc">   2871.89962541 </i>
    <i name="pawaedc">  -2927.43574361 </i>
    <i name="eentropy">      0.00000000 </i>
    <i name="bandstr">    115.14581172 </i>
    <i name="atom">   4192.47801228 </i>
    <i name="e_fr_energy">    406.79963782 </i>
    <i name="e_wo_entrp">    406.79963782 </i>
    <i name="e_0_energy">    406.79963782 </i>
   </energy>
  </scstep>
  <scstep>
   <time name="dav">    4.55    4.56</time>
   <time name="total">    4.57    4.80</time>
   <energy>
    <i name="e_fr_energy">      4.88831219 </i>
    <i name="e_wo_entrp">      4.88831219 </i>
    <i name="e_0_energy">      4.88831219 </i>
   </energy>
  </scstep>
  <scstep>
   <time name="dav">    5.13    5.16</time>
   <time name="total">    5.15    5.18</time>
   <energy>
    <i name="e_fr_energy">    -42.80126687 </i>
    <i name="e_wo_entrp">    -42.80126687 </i>
    <i name="e_0_energy">    -42.80126687 </i>
   </energy>
  </scstep>
  <scstep>
   <time name="dav">    7.45    7.49</time>
   <time name="total">    7.46    7.51</time>
   <energy>
    <i name="e_fr_energy">    -45.64701982 </i>
    <i name="e_wo_entrp">    -45.64701982 </i>
    <i name="e_0_energy">    -45.64701982 </i>
   </energy>
  </scstep>
  <scstep>
   <time name="dav">    5.75    5.77</time>
   <time name="total">    5.90    5.92</time>
   <energy>
    <i name="e_fr_energy">    -45.71651206 </i>
    <i name="e_wo_entrp">    -45.71651206 </i>
    <i name="e_0_energy">    -45.71651206 </i>
   </energy>
  </scstep>
  <scstep>
   <time name="diag">    0.30    0.30</time>
   <time name="diis">    2.64    2.64</time>
   <time name="orth">    0.04    0.04</time>
   <time name="total">    3.46    3.47</time>
   <energy>
    <i name="e_fr_energy">    -40.39445522 </i>
    <i name="e_wo_entrp">    -40.39445522 </i>
    <i name="e_0_energy">    -40.39445522 </i>
   </energy>
  </scstep>
  <scstep>
   <time name="diag">    0.30    0.30</time>
   <time name="diis">    2.55    2.56</time>
   <time name="orth">    0.04    0.04</time>
   <time name="total">    3.37    3.39</time>
   <energy>
    <i name="e_fr_energy">    -39.56859728 </i>
    <i name="e_wo_entrp">    -39.56859728 </i>
    <i name="e_0_energy">    -39.56859728 </i>
   </energy>
  </scstep>
  <scstep>
   <time name="diag">    0.30    0.30</time>
   <time name="diis">    2.75    2.76</time>
   <time name="orth">    0.04    0.04</time>
   <time name="total">    3.57    3.58</time>
   <energy>
    <i name="e_fr_energy">    -39.66078467 </i>
    <i name="e_wo_entrp">    -39.66078467 </i>
    <i name="e_0_energy">    -39.66078467 </i>
   </energy>
  </scstep>
  <scstep>
   <time name="diag">    0.30    0.30</time>
   <time name="diis">    2.90    2.91</time>
   <time name="orth">    0.04    0.04</time>
   <time name="total">    3.73    3.74</time>
   <energy>
    <i name="e_fr_energy">    -39.67911134 </i>
    <i name="e_wo_entrp">    -39.67911134 </i>
    <i name="e_0_energy">    -39.67911134 </i>
   </energy>
  </scstep>
  <scstep>
   <time name="diag">    0.30    0.30</time>
   <time name="diis">    2.58    2.59</time>
   <time name="orth">    0.04    0.04</time>
   <time name="total">    3.40    3.42</time>
   <energy>
    <i name="e_fr_energy">    -39.68786406 </i>
    <i name="e_wo_entrp">    -39.68786406 </i>
    <i name="e_0_energy">    -39.68786406 </i>
   </energy>
  </scstep>
  <scstep>
   <time name="diag">    0.30    0.30</time>
   <time name="diis">    2.16    2.20</time>
   <time name="orth">    0.04    0.04</time>
   <time name="total">    2.98    3.03</time>
   <energy>
    <i name="e_fr_energy">    -39.69108985 </i>
    <i name="e_wo_entrp">    -39.69108985 </i>
    <i name="e_0_energy">    -39.69108985 </i>
   </energy>
  </scstep>
  <scstep>
   <time name="diag">    0.30    0.30</time>
   <time name="diis">    2.02    2.03</time>
   <time name="orth">    0.04    0.04</time>
   <time name="total">    2.85    2.86</time>
   <energy>
    <i name="e_fr_energy">    -39.69241835 </i>
    <i name="e_wo_entrp">    -39.69241835 </i>
    <i name="e_0_energy">    -39.69241835 </i>
   </energy>
  </scstep>
  <scstep>
   <time name="diag">    0.30    0.30</time>
   <time name="diis">    1.86    1.87</time>
   <time name="orth">    0.04    0.04</time>
   <time name="total">    2.57    2.57</time>
   <energy>
    <i name="alphaZ">    232.65173084 </i>
    <i name="ewald">  -3216.05931943 </i>
    <i name="hartreedc">  -1040.05320977 </i>
    <i name="XCdc">    185.82294217 </i>
    <i name="pawpsdc">   3157.33598229 </i>
    <i name="pawaedc">  -3220.26436552 </i>
    <i name="eentropy">      0.00000000 </i>
    <i name="bandstr">   -331.60488144 </i>
    <i name="atom">   4192.47801228 </i>
    <i name="e_fr_energy">    -39.69310858 </i>
    <i name="e_wo_entrp">    -39.69310858 </i>
    <i name="e_0_energy">    -39.69310858 </i>
   </energy>
  </scstep>
  <structure>
   <crystal>
    <varray name="basis" >
     <v>       3.94016227       0.00000000       0.00000000 </v>
     <v>       0.00000000       3.94016227       0.00000000 </v>
     <v>       0.00000000       0.00000000       3.94016227 </v>
    </varray>
    <i name="volume">     61.17054158 </i>
    <varray name="rec_basis" >
     <v>       0.25379665       0.00000000       0.00000000 </v>
     <v>       0.00000000       0.25379665       0.00000000 </v>
     <v>       0.00000000       0.00000000       0.25379665 </v>
    </varray>
   </crystal>
   <varray name="positions" >
    <v>       0.00000000       0.00000000       0.00000000 </v>
    <v>       0.50000000       0.50000000       0.50000000 </v>
    <v>       0.00000000       0.50000000       0.50000000 </v>
    <v>       0.50000000       0.00000000       0.50000000 </v>
    <v>       0.50000000       0.50000000       0.00000000 </v>
   </varray>
  </structure>
  <varray name="forces" >
   <v>       0.00000000       0.00000000       0.00000000 </v>
   <v>       0.00000000       0.00000000       0.00000000 </v>
   <v>       0.00000000       0.00000000       0.00000000 </v>
   <v>       0.00000000       0.00000000       0.00000000 </v>
   <v>       0.00000000       0.00000000       0.00000000 </v>
  </varray>
  <varray name="stress" >
   <v>       0.23046728       0.00000000       0.00000000 </v>
   <v>       0.00000000       0.23046728       0.00000000 </v>
   <v>       0.00000000       0.00000000       0.23046728 </v>
  </varray>
  <energy>
   <i name="e_fr_energy">    -39.69310858 </i>
   <i name="e_wo_entrp">    -39.69310858 </i>
   <i name="e_0_energy">      0.00000000 </i>
  </energy>
  <time name="totalsc">   60.51   61.82</time>
  <eigenvalues>
   <array>
    <dimension dim="1">band</dimension>
    <dimension dim="2">kpoint</dimension>
    <dimension dim="3">spin</dimension>
    <field>eigene</field>
    <field>occ</field>
    <set>
     <set comment="spin 1">
      <set comment="kpoint 1">
       <r>  -42.7483    1.0000 </r>
       <r>  -42.7483    1.0000 </r>
       <r>  -42.7483    1.0000 </r>
       <r>  -25.0714    1.0000 </r>
       <r>  -11.6262    1.0000 </r>
       <r>  -10.4613    1.0000 </r>
       <r>  -10.4613    1.0000 </r>
       <r>   -8.5979    1.0000 </r>
       <r>   -8.5979    1.0000 </r>
       <r>   -8.4982    1.0000 </r>
       <r>    2.1758    1.0000 </r>
       <r>    2.3621    1.0000 </r>
       <r>    2.3621    1.0000 </r>
       <r>    2.8560    1.0000 </r>
       <r>    2.8560    1.0000 </r>
       <r>    3.1124    1.0000 </r>
       <r>    4.4569    1.0000 </r>
       <r>    4.4569    1.0000 </r>
       <r>    4.4826    1.0000 </r>
       <r>    4.9024    1.0000 </r>
       <r>    4.9024    1.0000 </r>
       <r>    5.2301    1.0000 </r>
       <r>    6.2553    1.0004 </r>
       <r>    6.2553    1.0549 </r>
       <r>    9.2355    0.0000 </r>
       <r>    9.2374    0.0000 </r>
       <r>    9.5946    0.0000 </r>
       <r>    9.7152    0.0000 </r>
       <r>    9.7690    0.0000 </r>
       <r>    9.9117    0.0000 </r>
       <r>    9.9498    0.0000 </r>
       <r>   10.0179    0.0000 </r>
      </set>
      <set comment="kpoint 2">
       <r>  -42.7500    1.0000 </r>
       <r>  -42.7482    1.0000 </r>
       <r>  -42.7482    1.0000 </r>
       <r>  -25.0494    1.0000 </r>
       <r>  -11.7386    1.0000 </r>
       <r>  -10.5973    1.0000 </r>
       <r>  -10.4201    1.0000 </r>
       <r>   -8.5955    1.0000 </r>
       <r>   -8.5174    1.0000 </r>
       <r>   -8.1773    1.0000 </r>
       <r>    1.4441    1.0000 </r>
       <r>    2.0697    1.0000 </r>
       <r>    2.2173    1.0000 </r>
       <r>    2.4393    1.0000 </r>
       <r>    2.4633    1.0000 </r>
       <r>    3.1147    1.0000 </r>
       <r>    4.0539    1.0000 </r>
       <r>    4.1811    1.0000 </r>
       <r>    4.5592    1.0000 </r>
       <r>    4.7585    1.0000 </r>
       <r>    5.1967    1.0000 </r>
       <r>    5.3179    1.0000 </r>
       <r>    6.2047    1.0040 </r>
       <r>    7.3416    0.9867 </r>
       <r>    9.3658    0.0000 </r>
       <r>    9.4695    0.0000 </r>
       <r>    9.5705    0.0000 </r>
       <r>    9.6735    0.0000 </r>
       <r>    9.6797    0.0000 </r>
       <r>    9.7744    0.0000 </r>
       <r>    9.8628    0.0000 </r>
       <r>   10.6112    0.0000 </r>
      </set>
      <set comment="kpoint 3">
       <r>  -42.7517    1.0000 </r>
       <r>  -42.7481    1.0000 </r>
       <r>  -42.7481    1.0000 </r>
       <r>  -25.0272    1.0000 </r>
       <r>  -11.9174    1.0000 </r>
       <r>  -10.5740    1.0000 </r>
       <r>  -10.3776    1.0000 </r>
       <r>   -8.5942    1.0000 </r>
       <r>   -8.4600    1.0000 </r>
       <r>   -7.9231    1.0000 </r>
       <r>    0.7841    1.0000 </r>
       <r>    1.8479    1.0000 </r>
       <r>    2.0372    1.0000 </r>
       <r>    2.1128    1.0000 </r>
       <r>    2.2248    1.0000 </r>
       <r>    3.1319    1.0000 </r>
       <r>    3.7047    1.0000 </r>
       <r>    3.7731    1.0000 </r>
       <r>    4.4672    1.0000 </r>
       <r>    4.8225    1.0000 </r>
       <r>    5.5703    1.0000 </r>
       <r>    5.6254    1.0000 </r>
       <r>    6.1002    1.0074 </r>
       <r>    7.9501    0.1518 </r>
       <r>    9.3894    0.0000 </r>
       <r>    9.5668    0.0000 </r>
       <r>    9.5671    0.0000 </r>
       <r>    9.6307    0.0000 </r>
       <r>    9.6371    0.0000 </r>
       <r>    9.7592    0.0000 </r>
       <r>    9.8217    0.0000 </r>
       <r>   11.3681    0.0000 </r>
      </set>
      <set comment="kpoint 4">
       <r>  -42.7499    1.0000 </r>
       <r>  -42.7499    1.0000 </r>
       <r>  -42.7481    1.0000 </r>
       <r>  -25.0289    1.0000 </r>
       <r>  -11.6602    1.0000 </r>
       <r>  -10.7757    1.0000 </r>
       <r>  -10.4357    1.0000 </r>
       <r>   -8.5740    1.0000 </r>
       <r>   -8.3803    1.0000 </r>
       <r>   -8.1389    1.0000 </r>
       <r>    1.1868    1.0000 </r>
       <r>    1.5967    1.0000 </r>
       <r>    1.8104    1.0000 </r>
       <r>    2.0246    1.0000 </r>
       <r>    2.1729    1.0000 </r>
       <r>    3.0403    1.0000 </r>
       <r>    3.9700    1.0000 </r>
       <r>    4.4527    1.0000 </r>
       <r>    4.8114    1.0000 </r>
       <r>    4.8720    1.0000 </r>
       <r>    5.0997    1.0000 </r>
       <r>    5.2345    1.0000 </r>
       <r>    6.6636    1.0209 </r>
       <r>    8.1234    0.1757 </r>
       <r>    9.4338    0.0000 </r>
       <r>    9.4381    0.0000 </r>
       <r>    9.5709    0.0000 </r>
       <r>    9.6173    0.0000 </r>
       <r>    9.6715    0.0000 </r>
       <r>    9.6936    0.0000 </r>
       <r>    9.8287    0.0000 </r>
       <r>   10.9658    0.0000 </r>
      </set>
      <set comment="kpoint 5">
       <r>  -42.7516    1.0000 </r>
       <r>  -42.7498    1.0000 </r>
       <r>  -42.7480    1.0000 </r>
       <r>  -25.0082    1.0000 </r>
       <r>  -11.6666    1.0000 </r>
       <r>  -10.8198    1.0000 </r>
       <r>  -10.4362    1.0000 </r>
       <r>   -8.5885    1.0000 </r>
       <r>   -8.2999    1.0000 </r>
       <r>   -8.0692    1.0000 </r>
       <r>    0.7259    1.0000 </r>
       <r>    1.1833    1.0000 </r>
       <r>    1.5170    1.0000 </r>
       <r>    1.8720    1.0000 </r>
       <r>    1.9325    1.0000 </r>
       <r>    3.0630    1.0000 </r>
       <r>    3.9880    1.0000 </r>
       <r>    4.2918    1.0000 </r>
       <r>    4.6360    1.0000 </r>
       <r>    5.0775    1.0000 </r>
       <r>    5.3796    1.0000 </r>
       <r>    5.5464    1.0000 </r>
       <r>    6.6960    1.0365 </r>
       <r>    8.7605   -0.0210 </r>
       <r>    9.4273    0.0000 </r>
       <r>    9.4950    0.0000 </r>
       <r>    9.5776    0.0000 </r>
       <r>    9.6095    0.0000 </r>
       <r>    9.6383    0.0000 </r>
       <r>    9.6750    0.0000 </r>
       <r>    9.7608    0.0000 </r>
       <r>   11.6386    0.0000 </r>
      </set>
      <set comment="kpoint 6">
       <r>  -42.7515    1.0000 </r>
       <r>  -42.7515    1.0000 </r>
       <r>  -42.7479    1.0000 </r>
       <r>  -24.9891    1.0000 </r>
       <r>  -11.3030    1.0000 </r>
       <r>  -11.0279    1.0000 </r>
       <r>  -10.6355    1.0000 </r>
       <r>   -8.5296    1.0000 </r>
       <r>   -8.2277    1.0000 </r>
       <r>   -8.1740    1.0000 </r>
       <r>    0.5575    1.0000 </r>
       <r>    0.7327    1.0000 </r>
       <r>    0.9317    1.0000 </r>
       <r>    1.7171    1.0000 </r>
       <r>    1.7307    1.0000 </r>
       <r>    3.0806    1.0000 </r>
       <r>    4.2957    1.0000 </r>
       <r>    4.4589    1.0000 </r>
       <r>    5.1328    1.0000 </r>
       <r>    5.3380    1.0000 </r>
       <r>    5.3797    1.0000 </r>
       <r>    5.5107    1.0000 </r>
       <r>    6.7881    1.0485 </r>
       <r>    9.3594    0.0000 </r>
       <r>    9.3941    0.0000 </r>
       <r>    9.5890    0.0000 </r>
       <r>    9.6327    0.0000 </r>
       <r>    9.6519    0.0000 </r>
       <r>    9.6558    0.0000 </r>
       <r>    9.6679    0.0000 </r>
       <r>    9.7127    0.0000 </r>
       <r>   11.8289    0.0000 </r>
      </set>
      <set comment="kpoint 7">
       <r>  -42.7498    1.0000 </r>
       <r>  -42.7498    1.0000 </r>
       <r>  -42.7498    1.0000 </r>
       <r>  -25.0096    1.0000 </r>
       <r>  -11.5350    1.0000 </r>
       <r>  -10.6327    1.0000 </r>
       <r>  -10.6327    1.0000 </r>
       <r>   -8.5696    1.0000 </r>
       <r>   -8.5696    1.0000 </r>
       <r>   -8.0804    1.0000 </r>
       <r>    0.9802    1.0000 </r>
       <r>    1.5918    1.0000 </r>
       <r>    1.5918    1.0000 </r>
       <r>    1.8674    1.0000 </r>
       <r>    1.8674    1.0000 </r>
       <r>    2.1103    1.0000 </r>
       <r>    4.5556    1.0000 </r>
       <r>    4.5556    1.0000 </r>
       <r>    4.9214    1.0000 </r>
       <r>    4.9798    1.0000 </r>
       <r>    5.1821    1.0000 </r>
       <r>    5.1822    1.0000 </r>
       <r>    8.0966    0.6556 </r>
       <r>    8.0966    0.0599 </r>
       <r>    9.4510    0.0000 </r>
       <r>    9.4526    0.0000 </r>
       <r>    9.5482    0.0000 </r>
       <r>    9.6002    0.0000 </r>
       <r>    9.6470    0.0000 </r>
       <r>    9.6472    0.0000 </r>
       <r>    9.8997    0.0000 </r>
       <r>   11.3781    0.0000 </r>
      </set>
      <set comment="kpoint 8">
       <r>  -42.7515    1.0000 </r>
       <r>  -42.7497    1.0000 </r>
       <r>  -42.7497    1.0000 </r>
       <r>  -24.9900    1.0000 </r>
       <r>  -11.4312    1.0000 </r>
       <r>  -10.7906    1.0000 </r>
       <r>  -10.4584    1.0000 </r>
       <r>   -8.7906    1.0000 </r>
       <r>   -8.4070    1.0000 </r>
       <r>   -8.1959    1.0000 </r>
       <r>    0.6964    1.0000 </r>
       <r>    1.1555    1.0000 </r>
       <r>    1.5230    1.0000 </r>
       <r>    1.5892    1.0000 </r>
       <r>    1.6586    1.0000 </r>
       <r>    2.0674    1.0000 </r>
       <r>    4.5027    1.0000 </r>
       <r>    4.7721    1.0000 </r>
       <r>    4.8409    1.0000 </r>
       <r>    5.2396    1.0000 </r>
       <r>    5.2790    1.0000 </r>
       <r>    5.6215    1.0000 </r>
       <r>    8.0448    0.5062 </r>
       <r>    8.9266   -0.0098 </r>
       <r>    9.4499    0.0000 </r>
       <r>    9.4904    0.0000 </r>
       <r>    9.5576    0.0000 </r>
       <r>    9.6018    0.0000 </r>
       <r>    9.6431    0.0000 </r>
       <r>    9.6452    0.0000 </r>
       <r>    9.8420    0.0000 </r>
       <r>   11.9866    0.0000 </r>
      </set>
      <set comment="kpoint 9">
       <r>  -42.7513    1.0000 </r>
       <r>  -42.7513    1.0000 </r>
       <r>  -42.7496    1.0000 </r>
       <r>  -24.9717    1.0000 </r>
       <r>  -11.0888    1.0000 </r>
       <r>  -10.8202    1.0000 </r>
       <r>  -10.5427    1.0000 </r>
       <r>   -8.8255    1.0000 </r>
       <r>   -8.5657    1.0000 </r>
       <r>   -8.4079    1.0000 </r>
       <r>    0.5602    1.0000 </r>
       <r>    0.9368    1.0000 </r>
       <r>    1.0769    1.0000 </r>
       <r>    1.5505    1.0000 </r>
       <r>    1.6142    1.0000 </r>
       <r>    1.7797    1.0000 </r>
       <r>    4.8259    1.0000 </r>
       <r>    4.9511    1.0000 </r>
       <r>    5.3616    1.0000 </r>
       <r>    5.3918    1.0000 </r>
       <r>    5.5300    1.0000 </r>
       <r>    5.6101    1.0000 </r>
       <r>    8.3858    0.1540 </r>
       <r>    9.4101    0.0000 </r>
       <r>    9.4387    0.0000 </r>
       <r>    9.5543    0.0000 </r>
       <r>    9.6180    0.0000 </r>
       <r>    9.6378    0.0000 </r>
       <r>    9.6908    0.0000 </r>
       <r>    9.6942    0.0000 </r>
       <r>    9.8041    0.0000 </r>
       <r>   11.6013    0.0000 </r>
      </set>
      <set comment="kpoint 10">
       <r>  -42.7512    1.0000 </r>
       <r>  -42.7512    1.0000 </r>
       <r>  -42.7512    1.0000 </r>
       <r>  -24.9542    1.0000 </r>
       <r>  -10.7709    1.0000 </r>
       <r>  -10.5360    1.0000 </r>
       <r>  -10.5360    1.0000 </r>
       <r>   -8.9749    1.0000 </r>
       <r>   -8.9749    1.0000 </r>
       <r>   -8.7741    1.0000 </r>
       <r>    0.4097    1.0000 </r>
       <r>    0.9424    1.0000 </r>
       <r>    0.9424    1.0000 </r>
       <r>    1.3757    1.0000 </r>
       <r>    1.5141    1.0000 </r>
       <r>    1.5141    1.0000 </r>
       <r>    5.3931    1.0000 </r>
       <r>    5.3931    1.0000 </r>
       <r>    5.5322    1.0000 </r>
       <r>    5.6413    1.0000 </r>
       <r>    5.7086    1.0000 </r>
       <r>    5.7086    1.0000 </r>
       <r>    9.4714    0.0000 </r>
       <r>    9.4718    0.0000 </r>
       <r>    9.4908    0.0000 </r>
       <r>    9.6472    0.0000 </r>
       <r>    9.6411    0.0000 </r>
       <r>    9.6593    0.0000 </r>
       <r>    9.7817    0.0000 </r>
       <r>    9.7835    0.0000 </r>
       <r>    9.8761    0.0000 </r>
       <r>   11.1753    0.0000 </r>
      </set>
     </set>
     <set comment="spin 2">
      <set comment="kpoint 1">
       <r>  -38.6745    1.0000 </r>
       <r>  -38.6745    1.0000 </r>
       <r>  -38.6745    1.0000 </r>
       <r>  -25.0650    1.0000 </r>
       <r>  -11.5638    1.0000 </r>
       <r>  -10.3146    1.0000 </r>
       <r>  -10.3146    1.0000 </r>
       <r>   -8.5715    1.0000 </r>
       <r>   -8.5715    1.0000 </r>
       <r>   -8.4765    1.0000 </r>
       <r>    2.3744    1.0000 </r>
       <r>    2.6606    1.0000 </r>
       <r>    2.6606    1.0000 </r>
       <r>    4.1640    1.0000 </r>
       <r>    4.1640    1.0000 </r>
       <r>    4.5471    1.0000 </r>
       <r>    5.0807    1.0000 </r>
       <r>    5.4237    1.0000 </r>
       <r>    5.4237    1.0000 </r>
       <r>    9.2076    0.0000 </r>
       <r>    9.2077    0.0000 </r>
       <r>    9.3220    0.0000 </r>
       <r>    9.4942    0.0000 </r>
       <r>    9.4949    0.0000 </r>
       <r>    9.6735    0.0000 </r>
       <r>    9.8136    0.0000 </r>
       <r>    9.8138    0.0000 </r>
       <r>    9.8609    0.0000 </r>
       <r>    9.9207    0.0000 </r>
       <r>   10.1398    0.0000 </r>
       <r>   10.1392    0.0000 </r>
       <r>   12.1298    0.0000 </r>
      </set>
      <set comment="kpoint 2">
       <r>  -38.6772    1.0000 </r>
       <r>  -38.6743    1.0000 </r>
       <r>  -38.6743    1.0000 </r>
       <r>  -25.0431    1.0000 </r>
       <r>  -11.6740    1.0000 </r>
       <r>  -10.5031    1.0000 </r>
       <r>  -10.2709    1.0000 </r>
       <r>   -8.5700    1.0000 </r>
       <r>   -8.4919    1.0000 </r>
       <r>   -8.1449    1.0000 </r>
       <r>    2.0542    1.0000 </r>
       <r>    2.5887    1.0000 </r>
       <r>    2.6857    1.0000 </r>
       <r>    3.6348    1.0000 </r>
       <r>    3.8130    1.0000 </r>
       <r>    4.3803    1.0000 </r>
       <r>    4.4380    1.0000 </r>
       <r>    5.1423    1.0000 </r>
       <r>    5.1742    1.0000 </r>
       <r>    9.2501    0.0000 </r>
       <r>    9.3262    0.0000 </r>
       <r>    9.4177    0.0000 </r>
       <r>    9.5928    0.0000 </r>
       <r>    9.5954    0.0000 </r>
       <r>    9.7149    0.0000 </r>
       <r>    9.8118    0.0000 </r>
       <r>   10.0839    0.0000 </r>
       <r>   10.2652    0.0000 </r>
       <r>   10.3150    0.0000 </r>
       <r>   10.7945    0.0000 </r>
       <r>   10.8656    0.0000 </r>
       <r>   12.3442    0.0000 </r>
      </set>
      <set comment="kpoint 3">
       <r>  -38.6800    1.0000 </r>
       <r>  -38.6742    1.0000 </r>
       <r>  -38.6742    1.0000 </r>
       <r>  -25.0210    1.0000 </r>
       <r>  -11.8452    1.0000 </r>
       <r>  -10.5312    1.0000 </r>
       <r>  -10.2257    1.0000 </r>
       <r>   -8.5697    1.0000 </r>
       <r>   -8.4382    1.0000 </r>
       <r>   -7.8889    1.0000 </r>
       <r>    1.9165    1.0000 </r>
       <r>    2.4713    1.0000 </r>
       <r>    2.5639    1.0000 </r>
       <r>    3.1724    1.0000 </r>
       <r>    3.3297    1.0000 </r>
       <r>    4.2566    1.0000 </r>
       <r>    4.2739    1.0000 </r>
       <r>    4.7576    1.0000 </r>
       <r>    4.9079    1.0000 </r>
       <r>    9.2007    0.0000 </r>
       <r>    9.3423    0.0000 </r>
       <r>    9.5382    0.0000 </r>
       <r>    9.5788    0.0000 </r>
       <r>    9.5933    0.0000 </r>
       <r>    9.7334    0.0000 </r>
       <r>    9.7866    0.0000 </r>
       <r>   10.3839    0.0000 </r>
       <r>   10.9170    0.0000 </r>
       <r>   10.9453    0.0000 </r>
       <r>   11.5398    0.0000 </r>
       <r>   11.6537    0.0000 </r>
       <r>   12.1584    0.0000 </r>
      </set>
      <set comment="kpoint 4">
       <r>  -38.6771    1.0000 </r>
       <r>  -38.6770    1.0000 </r>
       <r>  -38.6742    1.0000 </r>
       <r>  -25.0228    1.0000 </r>
       <r>  -11.6012    1.0000 </r>
       <r>  -10.6915    1.0000 </r>
       <r>  -10.3126    1.0000 </r>
       <r>   -8.5488    1.0000 </r>
       <r>   -8.3454    1.0000 </r>
       <r>   -8.1152    1.0000 </r>
       <r>    1.7066    1.0000 </r>
       <r>    2.6516    1.0000 </r>
       <r>    2.8470    1.0000 </r>
       <r>    2.9872    1.0000 </r>
       <r>    3.6029    1.0000 </r>
       <r>    3.9250    1.0000 </r>
       <r>    4.6419    1.0000 </r>
       <r>    4.8542    1.0000 </r>
       <r>    5.1672    1.0000 </r>
       <r>    9.3494    0.0000 </r>
       <r>    9.3897    0.0000 </r>
       <r>    9.3935    0.0000 </r>
       <r>    9.5941    0.0000 </r>
       <r>    9.6175    0.0000 </r>
       <r>    9.6537    0.0000 </r>
       <r>    9.8080    0.0000 </r>
       <r>   10.2982    0.0000 </r>
       <r>   10.4666    0.0000 </r>
       <r>   10.5948    0.0000 </r>
       <r>   11.4903    0.0000 </r>
       <r>   11.5826    0.0000 </r>
       <r>   12.5659    0.0000 </r>
      </set>
      <set comment="kpoint 5">
       <r>  -38.6798    1.0000 </r>
       <r>  -38.6769    1.0000 </r>
       <r>  -38.6740    1.0000 </r>
       <r>  -25.0022    1.0000 </r>
       <r>  -11.6013    1.0000 </r>
       <r>  -10.7746    1.0000 </r>
       <r>  -10.3153    1.0000 </r>
       <r>   -8.5647    1.0000 </r>
       <r>   -8.2791    1.0000 </r>
       <r>   -8.0413    1.0000 </r>
       <r>    1.5809    1.0000 </r>
       <r>    2.3505    1.0000 </r>
       <r>    2.6664    1.0000 </r>
       <r>    2.8168    1.0000 </r>
       <r>    3.3634    1.0000 </r>
       <r>    3.9914    1.0000 </r>
       <r>    4.3914    1.0000 </r>
       <r>    4.6309    1.0000 </r>
       <r>    5.1516    1.0000 </r>
       <r>    9.3564    0.0000 </r>
       <r>    9.4233    0.0000 </r>
       <r>    9.4511    0.0000 </r>
       <r>    9.5975    0.0000 </r>
       <r>    9.6083    0.0000 </r>
       <r>    9.6585    0.0000 </r>
       <r>    9.7421    0.0000 </r>
       <r>   10.6696    0.0000 </r>
       <r>   10.8048    0.0000 </r>
       <r>   11.0145    0.0000 </r>
       <r>   11.8701    0.0000 </r>
       <r>   12.0662    0.0000 </r>
       <r>   12.5570    0.0000 </r>
      </set>
      <set comment="kpoint 6">
       <r>  -38.6796    1.0000 </r>
       <r>  -38.6796    1.0000 </r>
       <r>  -38.6739    1.0000 </r>
       <r>  -24.9832    1.0000 </r>
       <r>  -11.2465    1.0000 </r>
       <r>  -10.9853    1.0000 </r>
       <r>  -10.5371    1.0000 </r>
       <r>   -8.5091    1.0000 </r>
       <r>   -8.2078    1.0000 </r>
       <r>   -8.1563    1.0000 </r>
       <r>    1.3283    1.0000 </r>
       <r>    1.8269    1.0000 </r>
       <r>    2.8527    1.0000 </r>
       <r>    2.9362    1.0000 </r>
       <r>    3.1982    1.0000 </r>
       <r>    3.6730    1.0000 </r>
       <r>    4.4375    1.0000 </r>
       <r>    4.5630    1.0000 </r>
       <r>    5.5568    1.0000 </r>
       <r>    9.3760    0.0000 </r>
       <r>    9.3891    0.0000 </r>
       <r>    9.5460    0.0000 </r>
       <r>    9.6190    0.0000 </r>
       <r>    9.6352    0.0000 </r>
       <r>    9.6467    0.0000 </r>
       <r>    9.7003    0.0000 </r>
       <r>   10.9635    0.0000 </r>
       <r>   11.0498    0.0000 </r>
       <r>   11.0865    0.0000 </r>
       <r>   11.6195    0.0000 </r>
       <r>   12.4803    0.0000 </r>
       <r>   13.3448    0.0000 </r>
      </set>
      <set comment="kpoint 7">
       <r>  -38.6769    1.0000 </r>
       <r>  -38.6769    1.0000 </r>
       <r>  -38.6769    1.0000 </r>
       <r>  -25.0035    1.0000 </r>
       <r>  -11.4837    1.0000 </r>
       <r>  -10.5445    1.0000 </r>
       <r>  -10.5445    1.0000 </r>
       <r>   -8.5360    1.0000 </r>
       <r>   -8.5360    1.0000 </r>
       <r>   -8.0610    1.0000 </r>
       <r>    1.4302    1.0000 </r>
       <r>    2.8644    1.0000 </r>
       <r>    2.8644    1.0000 </r>
       <r>    3.0692    1.0000 </r>
       <r>    3.2200    1.0000 </r>
       <r>    3.2201    1.0000 </r>
       <r>    4.9958    1.0000 </r>
       <r>    4.9958    1.0000 </r>
       <r>    5.0430    1.0000 </r>
       <r>    9.3677    0.0000 </r>
       <r>    9.3678    0.0000 </r>
       <r>    9.4582    0.0000 </r>
       <r>    9.5734    0.0000 </r>
       <r>    9.6247    0.0000 </r>
       <r>    9.6247    0.0000 </r>
       <r>    9.8950    0.0000 </r>
       <r>   10.5167    0.0000 </r>
       <r>   10.5197    0.0000 </r>
       <r>   10.8978    0.0000 </r>
       <r>   11.8700    0.0000 </r>
       <r>   11.9055    0.0000 </r>
       <r>   12.2043    0.0000 </r>
      </set>
      <set comment="kpoint 8">
       <r>  -38.6796    1.0000 </r>
       <r>  -38.6768    1.0000 </r>
       <r>  -38.6767    1.0000 </r>
       <r>  -24.9842    1.0000 </r>
       <r>  -11.3744    1.0000 </r>
       <r>  -10.7459    1.0000 </r>
       <r>  -10.3638    1.0000 </r>
       <r>   -8.7610    1.0000 </r>
       <r>   -8.3797    1.0000 </r>
       <r>   -8.1755    1.0000 </r>
       <r>    1.3130    1.0000 </r>
       <r>    2.4506    1.0000 </r>
       <r>    2.8683    1.0000 </r>
       <r>    2.8750    1.0000 </r>
       <r>    3.0431    1.0000 </r>
       <r>    3.4466    1.0000 </r>
       <r>    4.8327    1.0000 </r>
       <r>    4.9916    1.0000 </r>
       <r>    5.1611    1.0000 </r>
       <r>    9.3756    0.0000 </r>
       <r>    9.4181    0.0000 </r>
       <r>    9.5044    0.0000 </r>
       <r>    9.5524    0.0000 </r>
       <r>    9.6301    0.0000 </r>
       <r>    9.6358    0.0000 </r>
       <r>    9.8264    0.0000 </r>
       <r>   10.8774    0.0000 </r>
       <r>   11.0438    0.0000 </r>
       <r>   11.0742    0.0000 </r>
       <r>   12.2220    0.0000 </r>
       <r>   12.2581    0.0000 </r>
       <r>   12.5875    0.0000 </r>
      </set>
      <set comment="kpoint 9">
       <r>  -38.6794    1.0000 </r>
       <r>  -38.6794    1.0000 </r>
       <r>  -38.6766    1.0000 </r>
       <r>  -24.9660    1.0000 </r>
       <r>  -11.0412    1.0000 </r>
       <r>  -10.7777    1.0000 </r>
       <r>  -10.4707    1.0000 </r>
       <r>   -8.7967    1.0000 </r>
       <r>   -8.5396    1.0000 </r>
       <r>   -8.3863    1.0000 </r>
       <r>    1.0400    1.0000 </r>
       <r>    2.3491    1.0000 </r>
       <r>    2.8664    1.0000 </r>
       <r>    2.9644    1.0000 </r>
       <r>    3.1071    1.0000 </r>
       <r>    3.1880    1.0000 </r>
       <r>    4.9690    1.0000 </r>
       <r>    5.0394    1.0000 </r>
       <r>    5.5539    1.0000 </r>
       <r>    9.4015    0.0000 </r>
       <r>    9.4032    0.0000 </r>
       <r>    9.5189    0.0000 </r>
       <r>    9.5787    0.0000 </r>
       <r>    9.6756    0.0000 </r>
       <r>    9.6846    0.0000 </r>
       <r>    9.7920    0.0000 </r>
       <r>   11.1499    0.0000 </r>
       <r>   11.1900    0.0000 </r>
       <r>   11.3317    0.0000 </r>
       <r>   11.6329    0.0000 </r>
       <r>   12.2954    0.0000 </r>
       <r>   12.7463    0.0000 </r>
      </set>
      <set comment="kpoint 10">
       <r>  -38.6793    1.0000 </r>
       <r>  -38.6793    1.0000 </r>
       <r>  -38.6793    1.0000 </r>
       <r>  -24.9487    1.0000 </r>
       <r>  -10.7327    1.0000 </r>
       <r>  -10.4939    1.0000 </r>
       <r>  -10.4939    1.0000 </r>
       <r>   -8.9430    1.0000 </r>
       <r>   -8.9430    1.0000 </r>
       <r>   -8.7460    1.0000 </r>
       <r>    0.6876    1.0000 </r>
       <r>    2.8423    1.0000 </r>
       <r>    2.8816    1.0000 </r>
       <r>    2.8816    1.0000 </r>
       <r>    3.0492    1.0000 </r>
       <r>    3.0492    1.0000 </r>
       <r>    5.4720    1.0000 </r>
       <r>    5.4720    1.0000 </r>
       <r>    5.5937    1.0000 </r>
       <r>    9.4288    0.0000 </r>
       <r>    9.4288    0.0000 </r>
       <r>    9.4586    0.0000 </r>
       <r>    9.6328    0.0000 </r>
       <r>    9.7628    0.0000 </r>
       <r>    9.7628    0.0000 </r>
       <r>    9.8710    0.0000 </r>
       <r>   11.0882    0.0000 </r>
       <r>   11.1941    0.0000 </r>
       <r>   11.1985    0.0000 </r>
       <r>   11.6150    0.0000 </r>
       <r>   11.6337    0.0000 </r>
       <r>   11.7059    0.0000 </r>
      </set>
     </set>
    </set>
   </array>
  </eigenvalues>
  <separator name="orbital magnetization" >
   <v name="MAGDIPOLOUT">      0.00000000      0.00000000      0.00000000</v>
  </separator>
  <dos>
   <i name="efermi">      7.87645425 </i>
   <total>
    <array>
     <dimension dim="1">gridpoints</dimension>
     <dimension dim="2">spin</dimension>
     <field>energy</field>
     <field>total</field>
     <field>integrated</field>
     <set>
      <set comment="spin 1">
       <r>   -45.5565     0.0000     0.0000 </r>
       <r>   -45.3508     0.0000     0.0000 </r>
       <r>   -45.1451     0.0000     0.0000 </r>
       <r>   -44.9394     0.0000     0.0000 </r>
       <r>   -44.7338     0.0000     0.0000 </r>
       <r>   -44.5281     0.0000     0.0000 </r>
       <r>   -44.3224     0.0000     0.0000 </r>
       <r>   -44.1167     0.0000     0.0000 </r>
       <r>   -43.9110     0.0000     0.0000 </r>
       <r>   -43.7053     0.0000     0.0000 </r>
       <r>   -43.4996     0.0000     0.0000 </r>
       <r>   -43.2939     0.0000     0.0000 </r>
       <r>   -43.0883     0.0000     0.0000 </r>
       <r>   -42.8826     0.0000     0.0000 </r>
       <r>   -42.6769     0.0000     3.0000 </r>
       <r>   -42.4712     0.0000     3.0000 </r>
       <r>   -42.2655     0.0000     3.0000 </r>
       <r>   -42.0598     0.0000     3.0000 </r>
       <r>   -41.8541     0.0000     3.0000 </r>
       <r>   -41.6485     0.0000     3.0000 </r>
       <r>   -41.4428     0.0000     3.0000 </r>
       <r>   -41.2371     0.0000     3.0000 </r>
       <r>   -41.0314     0.0000     3.0000 </r>
       <r>   -40.8257     0.0000     3.0000 </r>
       <r>   -40.6200     0.0000     3.0000 </r>
       <r>   -40.4143     0.0000     3.0000 </r>
       <r>   -40.2086     0.0000     3.0000 </r>
       <r>   -40.0030     0.0000     3.0000 </r>
       <r>   -39.7973     0.0000     3.0000 </r>
       <r>   -39.5916     0.0000     3.0000 </r>
       <r>   -39.3859     0.0000     3.0000 </r>
       <r>   -39.1802     0.0000     3.0000 </r>
       <r>   -38.9745     0.0000     3.0000 </r>
       <r>   -38.7688     0.0000     3.0000 </r>
       <r>   -38.5631     0.0000     3.0000 </r>
       <r>   -38.3575     0.0000     3.0000 </r>
       <r>   -38.1518     0.0000     3.0000 </r>
       <r>   -37.9461     0.0000     3.0000 </r>
       <r>   -37.7404     0.0000     3.0000 </r>
       <r>   -37.5347     0.0000     3.0000 </r>
       <r>   -37.3290     0.0000     3.0000 </r>
       <r>   -37.1233     0.0000     3.0000 </r>
       <r>   -36.9176     0.0000     3.0000 </r>
       <r>   -36.7120     0.0000     3.0000 </r>
       <r>   -36.5063     0.0000     3.0000 </r>
       <r>   -36.3006     0.0000     3.0000 </r>
       <r>   -36.0949     0.0000     3.0000 </r>
       <r>   -35.8892     0.0000     3.0000 </r>
       <r>   -35.6835     0.0000     3.0000 </r>
       <r>   -35.4778     0.0000     3.0000 </r>
       <r>   -35.2721     0.0000     3.0000 </r>
       <r>   -35.0665     0.0000     3.0000 </r>
       <r>   -34.8608     0.0000     3.0000 </r>
       <r>   -34.6551     0.0000     3.0000 </r>
       <r>   -34.4494     0.0000     3.0000 </r>
       <r>   -34.2437     0.0000     3.0000 </r>
       <r>   -34.0380     0.0000     3.0000 </r>
       <r>   -33.8323     0.0000     3.0000 </r>
       <r>   -33.6267     0.0000     3.0000 </r>
       <r>   -33.4210     0.0000     3.0000 </r>
       <r>   -33.2153     0.0000     3.0000 </r>
       <r>   -33.0096     0.0000     3.0000 </r>
       <r>   -32.8039     0.0000     3.0000 </r>
       <r>   -32.5982     0.0000     3.0000 </r>
       <r>   -32.3925     0.0000     3.0000 </r>
       <r>   -32.1868     0.0000     3.0000 </r>
       <r>   -31.9812     0.0000     3.0000 </r>
       <r>   -31.7755     0.0000     3.0000 </r>
       <r>   -31.5698     0.0000     3.0000 </r>
       <r>   -31.3641     0.0000     3.0000 </r>
       <r>   -31.1584     0.0000     3.0000 </r>
       <r>   -30.9527     0.0000     3.0000 </r>
       <r>   -30.7470     0.0000     3.0000 </r>
       <r>   -30.5413     0.0000     3.0000 </r>
       <r>   -30.3357     0.0000     3.0000 </r>
       <r>   -30.1300     0.0000     3.0000 </r>
       <r>   -29.9243     0.0000     3.0000 </r>
       <r>   -29.7186     0.0000     3.0000 </r>
       <r>   -29.5129     0.0000     3.0000 </r>
       <r>   -29.3072     0.0000     3.0000 </r>
       <r>   -29.1015     0.0000     3.0000 </r>
       <r>   -28.8958     0.0000     3.0000 </r>
       <r>   -28.6902     0.0000     3.0000 </r>
       <r>   -28.4845     0.0000     3.0000 </r>
       <r>   -28.2788     0.0000     3.0000 </r>
       <r>   -28.0731     0.0000     3.0000 </r>
       <r>   -27.8674     0.0000     3.0000 </r>
       <r>   -27.6617     0.0000     3.0000 </r>
       <r>   -27.4560     0.0000     3.0000 </r>
       <r>   -27.2503     0.0000     3.0000 </r>
       <r>   -27.0447     0.0000     3.0000 </r>
       <r>   -26.8390     0.0000     3.0000 </r>
       <r>   -26.6333     0.0000     3.0000 </r>
       <r>   -26.4276     0.0000     3.0000 </r>
       <r>   -26.2219     0.0000     3.0000 </r>
       <r>   -26.0162     0.0000     3.0000 </r>
       <r>   -25.8105     0.0000     3.0000 </r>
       <r>   -25.6049     0.0000     3.0000 </r>
       <r>   -25.3992     0.0000     3.0000 </r>
       <r>   -25.1935     0.0000     3.0000 </r>
       <r>   -24.9878    11.1093     3.8012 </r>
       <r>   -24.7821     0.0000     4.0000 </r>
       <r>   -24.5764     0.0000     4.0000 </r>
       <r>   -24.3707     0.0000     4.0000 </r>
       <r>   -24.1650     0.0000     4.0000 </r>
       <r>   -23.9594     0.0000     4.0000 </r>
       <r>   -23.7537     0.0000     4.0000 </r>
       <r>   -23.5480     0.0000     4.0000 </r>
       <r>   -23.3423     0.0000     4.0000 </r>
       <r>   -23.1366     0.0000     4.0000 </r>
       <r>   -22.9309     0.0000     4.0000 </r>
       <r>   -22.7252     0.0000     4.0000 </r>
       <r>   -22.5195     0.0000     4.0000 </r>
       <r>   -22.3139     0.0000     4.0000 </r>
       <r>   -22.1082     0.0000     4.0000 </r>
       <r>   -21.9025     0.0000     4.0000 </r>
       <r>   -21.6968     0.0000     4.0000 </r>
       <r>   -21.4911     0.0000     4.0000 </r>
       <r>   -21.2854     0.0000     4.0000 </r>
       <r>   -21.0797     0.0000     4.0000 </r>
       <r>   -20.8740     0.0000     4.0000 </r>
       <r>   -20.6684     0.0000     4.0000 </r>
       <r>   -20.4627     0.0000     4.0000 </r>
       <r>   -20.2570     0.0000     4.0000 </r>
       <r>   -20.0513     0.0000     4.0000 </r>
       <r>   -19.8456     0.0000     4.0000 </r>
       <r>   -19.6399     0.0000     4.0000 </r>
       <r>   -19.4342     0.0000     4.0000 </r>
       <r>   -19.2286     0.0000     4.0000 </r>
       <r>   -19.0229     0.0000     4.0000 </r>
       <r>   -18.8172     0.0000     4.0000 </r>
       <r>   -18.6115     0.0000     4.0000 </r>
       <r>   -18.4058     0.0000     4.0000 </r>
       <r>   -18.2001     0.0000     4.0000 </r>
       <r>   -17.9944     0.0000     4.0000 </r>
       <r>   -17.7887     0.0000     4.0000 </r>
       <r>   -17.5831     0.0000     4.0000 </r>
       <r>   -17.3774     0.0000     4.0000 </r>
       <r>   -17.1717     0.0000     4.0000 </r>
       <r>   -16.9660     0.0000     4.0000 </r>
       <r>   -16.7603     0.0000     4.0000 </r>
       <r>   -16.5546     0.0000     4.0000 </r>
       <r>   -16.3489     0.0000     4.0000 </r>
       <r>   -16.1432     0.0000     4.0000 </r>
       <r>   -15.9376     0.0000     4.0000 </r>
       <r>   -15.7319     0.0000     4.0000 </r>
       <r>   -15.5262     0.0000     4.0000 </r>
       <r>   -15.3205     0.0000     4.0000 </r>
       <r>   -15.1148     0.0000     4.0000 </r>
       <r>   -14.9091     0.0000     4.0000 </r>
       <r>   -14.7034     0.0000     4.0000 </r>
       <r>   -14.4977     0.0000     4.0000 </r>
       <r>   -14.2921     0.0000     4.0000 </r>
       <r>   -14.0864     0.0000     4.0000 </r>
       <r>   -13.8807     0.0000     4.0000 </r>
       <r>   -13.6750     0.0000     4.0000 </r>
       <r>   -13.4693     0.0000     4.0000 </r>
       <r>   -13.2636     0.0000     4.0000 </r>
       <r>   -13.0579     0.0000     4.0000 </r>
       <r>   -12.8522     0.0000     4.0000 </r>
       <r>   -12.6466     0.0000     4.0000 </r>
       <r>   -12.4409     0.0000     4.0000 </r>
       <r>   -12.2352     0.0000     4.0000 </r>
       <r>   -12.0295     0.0000     4.0000 </r>
       <r>   -11.8238     0.8468     4.0700 </r>
       <r>   -11.6181     1.4706     4.4883 </r>
       <r>   -11.4124     0.8840     4.7169 </r>
       <r>   -11.2068     0.5404     4.8818 </r>
       <r>   -11.0011     0.7928     4.9852 </r>
       <r>   -10.7954     4.7841     5.3906 </r>
       <r>   -10.5897     4.1324     5.9475 </r>
       <r>   -10.3840     2.1436     6.9741 </r>
       <r>   -10.1783     0.0000     7.0000 </r>
       <r>    -9.9726     0.0000     7.0000 </r>
       <r>    -9.7669     0.0000     7.0000 </r>
       <r>    -9.5613     0.0000     7.0000 </r>
       <r>    -9.3556     0.0000     7.0000 </r>
       <r>    -9.1499     0.0000     7.0000 </r>
       <r>    -8.9442     0.3756     7.0189 </r>
       <r>    -8.7385     1.4317     7.2205 </r>
       <r>    -8.5328     3.1808     8.1697 </r>
       <r>    -8.3271     3.7627     8.9472 </r>
       <r>    -8.1214     4.7658     9.6076 </r>
       <r>    -7.9158     0.0000    10.0000 </r>
       <r>    -7.7101     0.0000    10.0000 </r>
       <r>    -7.5044     0.0000    10.0000 </r>
       <r>    -7.2987     0.0000    10.0000 </r>
       <r>    -7.0930     0.0000    10.0000 </r>
       <r>    -6.8873     0.0000    10.0000 </r>
       <r>    -6.6816     0.0000    10.0000 </r>
       <r>    -6.4759     0.0000    10.0000 </r>
       <r>    -6.2703     0.0000    10.0000 </r>
       <r>    -6.0646     0.0000    10.0000 </r>
       <r>    -5.8589     0.0000    10.0000 </r>
       <r>    -5.6532     0.0000    10.0000 </r>
       <r>    -5.4475     0.0000    10.0000 </r>
       <r>    -5.2418     0.0000    10.0000 </r>
       <r>    -5.0361     0.0000    10.0000 </r>
       <r>    -4.8305     0.0000    10.0000 </r>
       <r>    -4.6248     0.0000    10.0000 </r>
       <r>    -4.4191     0.0000    10.0000 </r>
       <r>    -4.2134     0.0000    10.0000 </r>
       <r>    -4.0077     0.0000    10.0000 </r>
       <r>    -3.8020     0.0000    10.0000 </r>
       <r>    -3.5963     0.0000    10.0000 </r>
       <r>    -3.3906     0.0000    10.0000 </r>
       <r>    -3.1850     0.0000    10.0000 </r>
       <r>    -2.9793     0.0000    10.0000 </r>
       <r>    -2.7736     0.0000    10.0000 </r>
       <r>    -2.5679     0.0000    10.0000 </r>
       <r>    -2.3622     0.0000    10.0000 </r>
       <r>    -2.1565     0.0000    10.0000 </r>
       <r>    -1.9508     0.0000    10.0000 </r>
       <r>    -1.7451     0.0000    10.0000 </r>
       <r>    -1.5395     0.0000    10.0000 </r>
       <r>    -1.3338     0.0000    10.0000 </r>
       <r>    -1.1281     0.0000    10.0000 </r>
       <r>    -0.9224     0.0000    10.0000 </r>
       <r>    -0.7167     0.0000    10.0000 </r>
       <r>    -0.5110     0.0000    10.0000 </r>
       <r>    -0.3053     0.0000    10.0000 </r>
       <r>    -0.0996     0.0000    10.0000 </r>
       <r>     0.1060     0.0000    10.0000 </r>
       <r>     0.3117     0.0000    10.0000 </r>
       <r>     0.5174     0.5182    10.0414 </r>
       <r>     0.7231     2.6200    10.4147 </r>
       <r>     0.9288     1.3994    10.7985 </r>
       <r>     1.1345     2.0903    11.3422 </r>
       <r>     1.3402     1.7123    11.7296 </r>
       <r>     1.5459     3.1831    12.1840 </r>
       <r>     1.7515     4.4359    13.0650 </r>
       <r>     1.9572     3.6897    13.9386 </r>
       <r>     2.1629     2.4414    14.6049 </r>
       <r>     2.3686     1.1292    15.0311 </r>
       <r>     2.5743     0.7487    15.2157 </r>
       <r>     2.7800     0.6232    15.3558 </r>
       <r>     2.9857     0.5009    15.4731 </r>
       <r>     3.1913     0.0000    16.0000 </r>
       <r>     3.3970     0.0000    16.0000 </r>
       <r>     3.6027     0.0000    16.0000 </r>
       <r>     3.8084     0.7788    16.0778 </r>
       <r>     4.0141     2.5153    16.3877 </r>
       <r>     4.2198     2.0649    16.7781 </r>
       <r>     4.4255     2.6640    17.2990 </r>
       <r>     4.6312     2.8419    17.9159 </r>
       <r>     4.8368     3.9638    18.5678 </r>
       <r>     5.0425     2.6540    19.1923 </r>
       <r>     5.2482     5.0769    19.8916 </r>
       <r>     5.4539     3.7939    21.0633 </r>
       <r>     5.6596     1.0741    21.9545 </r>
       <r>     5.8653     0.0000    22.0000 </r>
       <r>     6.0710     0.0000    22.0000 </r>
       <r>     6.2767     0.6231    22.1534 </r>
       <r>     6.4823     0.6263    22.2822 </r>
       <r>     6.6880     1.4088    22.4193 </r>
       <r>     6.8937     0.3810    22.6055 </r>
       <r>     7.0994     0.3694    22.6826 </r>
       <r>     7.3051     0.3606    22.7576 </r>
       <r>     7.5108     0.4090    22.8382 </r>
       <r>     7.7165     0.4454    22.9258 </r>
       <r>     7.9222     0.4955    23.0224 </r>
       <r>     8.1278     0.6248    23.1507 </r>
       <r>     8.3335     0.6092    23.2778 </r>
       <r>     8.5392     0.5554    23.3947 </r>
       <r>     8.7449     0.5532    23.5088 </r>
       <r>     8.9506     0.6218    23.6425 </r>
       <r>     9.1563     0.5943    23.7680 </r>
       <r>     9.3620     2.3063    24.0074 </r>
       <r>     9.5677    36.8844    26.0276 </r>
       <r>     9.7733     9.0162    30.1230 </r>
       <r>     9.9790     0.0000    31.0000 </r>
       <r>    10.1847     0.0798    31.0151 </r>
       <r>    10.3904     0.1296    31.0365 </r>
       <r>    10.5961     0.1896    31.0691 </r>
       <r>    10.8018     0.2759    31.1192 </r>
       <r>    11.0075     0.3277    31.1810 </r>
       <r>    11.2131     0.4963    31.2645 </r>
       <r>    11.4188     0.8856    31.4103 </r>
       <r>    11.6245     1.3906    31.6187 </r>
       <r>    11.8302     0.7730    31.9414 </r>
       <r>    12.0359     0.0000    32.0000 </r>
       <r>    12.2416     0.0000    32.0000 </r>
       <r>    12.4473     0.0000    32.0000 </r>
       <r>    12.6530     0.0000    32.0000 </r>
       <r>    12.8586     0.0000    32.0000 </r>
       <r>    13.0643     0.0000    32.0000 </r>
       <r>    13.2700     0.0000    32.0000 </r>
       <r>    13.4757     0.0000    32.0000 </r>
       <r>    13.6814     0.0000    32.0000 </r>
       <r>    13.8871     0.0000    32.0000 </r>
       <r>    14.0928     0.0000    32.0000 </r>
       <r>    14.2985     0.0000    32.0000 </r>
       <r>    14.5041     0.0000    32.0000 </r>
       <r>    14.7098     0.0000    32.0000 </r>
       <r>    14.9155     0.0000    32.0000 </r>
       <r>    15.1212     0.0000    32.0000 </r>
       <r>    15.3269     0.0000    32.0000 </r>
       <r>    15.5326     0.0000    32.0000 </r>
       <r>    15.7383     0.0000    32.0000 </r>
       <r>    15.9440     0.0000    32.0000 </r>
       <r>    16.1496     0.0000    32.0000 </r>
      </set>
      <set comment="spin 2">
       <r>   -45.5565     0.0000     0.0000 </r>
       <r>   -45.3508     0.0000     0.0000 </r>
       <r>   -45.1451     0.0000     0.0000 </r>
       <r>   -44.9394     0.0000     0.0000 </r>
       <r>   -44.7338     0.0000     0.0000 </r>
       <r>   -44.5281     0.0000     0.0000 </r>
       <r>   -44.3224     0.0000     0.0000 </r>
       <r>   -44.1167     0.0000     0.0000 </r>
       <r>   -43.9110     0.0000     0.0000 </r>
       <r>   -43.7053     0.0000     0.0000 </r>
       <r>   -43.4996     0.0000     0.0000 </r>
       <r>   -43.2939     0.0000     0.0000 </r>
       <r>   -43.0883     0.0000     0.0000 </r>
       <r>   -42.8826     0.0000     0.0000 </r>
       <r>   -42.6769     0.0000     0.0000 </r>
       <r>   -42.4712     0.0000     0.0000 </r>
       <r>   -42.2655     0.0000     0.0000 </r>
       <r>   -42.0598     0.0000     0.0000 </r>
       <r>   -41.8541     0.0000     0.0000 </r>
       <r>   -41.6485     0.0000     0.0000 </r>
       <r>   -41.4428     0.0000     0.0000 </r>
       <r>   -41.2371     0.0000     0.0000 </r>
       <r>   -41.0314     0.0000     0.0000 </r>
       <r>   -40.8257     0.0000     0.0000 </r>
       <r>   -40.6200     0.0000     0.0000 </r>
       <r>   -40.4143     0.0000     0.0000 </r>
       <r>   -40.2086     0.0000     0.0000 </r>
       <r>   -40.0030     0.0000     0.0000 </r>
       <r>   -39.7973     0.0000     0.0000 </r>
       <r>   -39.5916     0.0000     0.0000 </r>
       <r>   -39.3859     0.0000     0.0000 </r>
       <r>   -39.1802     0.0000     0.0000 </r>
       <r>   -38.9745     0.0000     0.0000 </r>
       <r>   -38.7688     0.0000     0.0000 </r>
       <r>   -38.5631     0.0000     3.0000 </r>
       <r>   -38.3575     0.0000     3.0000 </r>
       <r>   -38.1518     0.0000     3.0000 </r>
       <r>   -37.9461     0.0000     3.0000 </r>
       <r>   -37.7404     0.0000     3.0000 </r>
       <r>   -37.5347     0.0000     3.0000 </r>
       <r>   -37.3290     0.0000     3.0000 </r>
       <r>   -37.1233     0.0000     3.0000 </r>
       <r>   -36.9176     0.0000     3.0000 </r>
       <r>   -36.7120     0.0000     3.0000 </r>
       <r>   -36.5063     0.0000     3.0000 </r>
       <r>   -36.3006     0.0000     3.0000 </r>
       <r>   -36.0949     0.0000     3.0000 </r>
       <r>   -35.8892     0.0000     3.0000 </r>
       <r>   -35.6835     0.0000     3.0000 </r>
       <r>   -35.4778     0.0000     3.0000 </r>
       <r>   -35.2721     0.0000     3.0000 </r>
       <r>   -35.0665     0.0000     3.0000 </r>
       <r>   -34.8608     0.0000     3.0000 </r>
       <r>   -34.6551     0.0000     3.0000 </r>
       <r>   -34.4494     0.0000     3.0000 </r>
       <r>   -34.2437     0.0000     3.0000 </r>
       <r>   -34.0380     0.0000     3.0000 </r>
       <r>   -33.8323     0.0000     3.0000 </r>
       <r>   -33.6267     0.0000     3.0000 </r>
       <r>   -33.4210     0.0000     3.0000 </r>
       <r>   -33.2153     0.0000     3.0000 </r>
       <r>   -33.0096     0.0000     3.0000 </r>
       <r>   -32.8039     0.0000     3.0000 </r>
       <r>   -32.5982     0.0000     3.0000 </r>
       <r>   -32.3925     0.0000     3.0000 </r>
       <r>   -32.1868     0.0000     3.0000 </r>
       <r>   -31.9812     0.0000     3.0000 </r>
       <r>   -31.7755     0.0000     3.0000 </r>
       <r>   -31.5698     0.0000     3.0000 </r>
       <r>   -31.3641     0.0000     3.0000 </r>
       <r>   -31.1584     0.0000     3.0000 </r>
       <r>   -30.9527     0.0000     3.0000 </r>
       <r>   -30.7470     0.0000     3.0000 </r>
       <r>   -30.5413     0.0000     3.0000 </r>
       <r>   -30.3357     0.0000     3.0000 </r>
       <r>   -30.1300     0.0000     3.0000 </r>
       <r>   -29.9243     0.0000     3.0000 </r>
       <r>   -29.7186     0.0000     3.0000 </r>
       <r>   -29.5129     0.0000     3.0000 </r>
       <r>   -29.3072     0.0000     3.0000 </r>
       <r>   -29.1015     0.0000     3.0000 </r>
       <r>   -28.8958     0.0000     3.0000 </r>
       <r>   -28.6902     0.0000     3.0000 </r>
       <r>   -28.4845     0.0000     3.0000 </r>
       <r>   -28.2788     0.0000     3.0000 </r>
       <r>   -28.0731     0.0000     3.0000 </r>
       <r>   -27.8674     0.0000     3.0000 </r>
       <r>   -27.6617     0.0000     3.0000 </r>
       <r>   -27.4560     0.0000     3.0000 </r>
       <r>   -27.2503     0.0000     3.0000 </r>
       <r>   -27.0447     0.0000     3.0000 </r>
       <r>   -26.8390     0.0000     3.0000 </r>
       <r>   -26.6333     0.0000     3.0000 </r>
       <r>   -26.4276     0.0000     3.0000 </r>
       <r>   -26.2219     0.0000     3.0000 </r>
       <r>   -26.0162     0.0000     3.0000 </r>
       <r>   -25.8105     0.0000     3.0000 </r>
       <r>   -25.6049     0.0000     3.0000 </r>
       <r>   -25.3992     0.0000     3.0000 </r>
       <r>   -25.1935     0.0000     3.0000 </r>
       <r>   -24.9878    13.6821     3.7118 </r>
       <r>   -24.7821     0.0000     4.0000 </r>
       <r>   -24.5764     0.0000     4.0000 </r>
       <r>   -24.3707     0.0000     4.0000 </r>
       <r>   -24.1650     0.0000     4.0000 </r>
       <r>   -23.9594     0.0000     4.0000 </r>
       <r>   -23.7537     0.0000     4.0000 </r>
       <r>   -23.5480     0.0000     4.0000 </r>
       <r>   -23.3423     0.0000     4.0000 </r>
       <r>   -23.1366     0.0000     4.0000 </r>
       <r>   -22.9309     0.0000     4.0000 </r>
       <r>   -22.7252     0.0000     4.0000 </r>
       <r>   -22.5195     0.0000     4.0000 </r>
       <r>   -22.3139     0.0000     4.0000 </r>
       <r>   -22.1082     0.0000     4.0000 </r>
       <r>   -21.9025     0.0000     4.0000 </r>
       <r>   -21.6968     0.0000     4.0000 </r>
       <r>   -21.4911     0.0000     4.0000 </r>
       <r>   -21.2854     0.0000     4.0000 </r>
       <r>   -21.0797     0.0000     4.0000 </r>
       <r>   -20.8740     0.0000     4.0000 </r>
       <r>   -20.6684     0.0000     4.0000 </r>
       <r>   -20.4627     0.0000     4.0000 </r>
       <r>   -20.2570     0.0000     4.0000 </r>
       <r>   -20.0513     0.0000     4.0000 </r>
       <r>   -19.8456     0.0000     4.0000 </r>
       <r>   -19.6399     0.0000     4.0000 </r>
       <r>   -19.4342     0.0000     4.0000 </r>
       <r>   -19.2286     0.0000     4.0000 </r>
       <r>   -19.0229     0.0000     4.0000 </r>
       <r>   -18.8172     0.0000     4.0000 </r>
       <r>   -18.6115     0.0000     4.0000 </r>
       <r>   -18.4058     0.0000     4.0000 </r>
       <r>   -18.2001     0.0000     4.0000 </r>
       <r>   -17.9944     0.0000     4.0000 </r>
       <r>   -17.7887     0.0000     4.0000 </r>
       <r>   -17.5831     0.0000     4.0000 </r>
       <r>   -17.3774     0.0000     4.0000 </r>
       <r>   -17.1717     0.0000     4.0000 </r>
       <r>   -16.9660     0.0000     4.0000 </r>
       <r>   -16.7603     0.0000     4.0000 </r>
       <r>   -16.5546     0.0000     4.0000 </r>
       <r>   -16.3489     0.0000     4.0000 </r>
       <r>   -16.1432     0.0000     4.0000 </r>
       <r>   -15.9376     0.0000     4.0000 </r>
       <r>   -15.7319     0.0000     4.0000 </r>
       <r>   -15.5262     0.0000     4.0000 </r>
       <r>   -15.3205     0.0000     4.0000 </r>
       <r>   -15.1148     0.0000     4.0000 </r>
       <r>   -14.9091     0.0000     4.0000 </r>
       <r>   -14.7034     0.0000     4.0000 </r>
       <r>   -14.4977     0.0000     4.0000 </r>
       <r>   -14.2921     0.0000     4.0000 </r>
       <r>   -14.0864     0.0000     4.0000 </r>
       <r>   -13.8807     0.0000     4.0000 </r>
       <r>   -13.6750     0.0000     4.0000 </r>
       <r>   -13.4693     0.0000     4.0000 </r>
       <r>   -13.2636     0.0000     4.0000 </r>
       <r>   -13.0579     0.0000     4.0000 </r>
       <r>   -12.8522     0.0000     4.0000 </r>
       <r>   -12.6466     0.0000     4.0000 </r>
       <r>   -12.4409     0.0000     4.0000 </r>
       <r>   -12.2352     0.0000     4.0000 </r>
       <r>   -12.0295     0.0000     4.0000 </r>
       <r>   -11.8238     0.4917     4.0233 </r>
       <r>   -11.6181     3.2717     4.3196 </r>
       <r>   -11.4124     0.9999     4.6628 </r>
       <r>   -11.2068     0.6636     4.8504 </r>
       <r>   -11.0011     0.2899     4.9465 </r>
       <r>   -10.7954     1.8734     5.1934 </r>
       <r>   -10.5897     1.9049     5.7597 </r>
       <r>   -10.3840     2.9032     6.3708 </r>
       <r>   -10.1783     0.0000     7.0000 </r>
       <r>    -9.9726     0.0000     7.0000 </r>
       <r>    -9.7669     0.0000     7.0000 </r>
       <r>    -9.5613     0.0000     7.0000 </r>
       <r>    -9.3556     0.0000     7.0000 </r>
       <r>    -9.1499     0.0000     7.0000 </r>
       <r>    -8.9442     0.0000     7.0000 </r>
       <r>    -8.7385     1.2712     7.1823 </r>
       <r>    -8.5328     3.8968     8.0869 </r>
       <r>    -8.3271     4.1360     8.8534 </r>
       <r>    -8.1214     4.8105     9.4901 </r>
       <r>    -7.9158     0.6624     9.9710 </r>
       <r>    -7.7101     0.0000    10.0000 </r>
       <r>    -7.5044     0.0000    10.0000 </r>
       <r>    -7.2987     0.0000    10.0000 </r>
       <r>    -7.0930     0.0000    10.0000 </r>
       <r>    -6.8873     0.0000    10.0000 </r>
       <r>    -6.6816     0.0000    10.0000 </r>
       <r>    -6.4759     0.0000    10.0000 </r>
       <r>    -6.2703     0.0000    10.0000 </r>
       <r>    -6.0646     0.0000    10.0000 </r>
       <r>    -5.8589     0.0000    10.0000 </r>
       <r>    -5.6532     0.0000    10.0000 </r>
       <r>    -5.4475     0.0000    10.0000 </r>
       <r>    -5.2418     0.0000    10.0000 </r>
       <r>    -5.0361     0.0000    10.0000 </r>
       <r>    -4.8305     0.0000    10.0000 </r>
[...]
        <r>  0.0019  0.0054  0.0048  0.0000  0.0000  0.0000  0.0000  0.0000  0.0000  0.0000  0.0000  0.0000  0.0000  0.0000  0.0000  0.0000 </r>
        <r>  0.0180  0.0000  0.0005  0.0052  0.0000  0.0000  0.0000  0.0000  0.0000  0.0000  0.0000  0.0000  0.0000  0.0000  0.0000  0.0000 </r>
        <r>  0.0201  0.0005  0.0000  0.0046  0.0000  0.0000  0.0000  0.0000  0.0000  0.0000  0.0000  0.0000  0.0000  0.0000  0.0000  0.0000 </r>
       </set>
       <set comment="band 9">
        <r>  0.0000  0.1831  0.1383  0.5219  0.0001  0.0002  0.0000  0.0001  0.0000  0.0000  0.0000  0.0000  0.0000  0.0000  0.0000  0.0000 </r>
        <r>  0.0000  0.0002  0.0001  0.0005  0.0002  0.0008  0.0000  0.0003  0.0001  0.0000  0.0000  0.0000  0.0000  0.0000  0.0000  0.0000 </r>
        <r>  0.0248  0.0016  0.0022  0.0000  0.0000  0.0000  0.0000  0.0000  0.0000  0.0000  0.0000  0.0000  0.0000  0.0000  0.0000  0.0000 </r>
        <r>  0.0087  0.0000  0.0065  0.0018  0.0000  0.0000  0.0000  0.0000  0.0000  0.0000  0.0000  0.0000  0.0000  0.0000  0.0000  0.0000 </r>
        <r>  0.0066  0.0065  0.0000  0.0024  0.0000  0.0000  0.0000  0.0000  0.0000  0.0000  0.0000  0.0000  0.0000  0.0000  0.0000  0.0000 </r>
       </set>
       <set comment="band 10">
        <r>  0.0001  0.2655  0.2655  0.2655  0.0004  0.0004  0.0000  0.0004  0.0000  0.0000  0.0000  0.0000  0.0000  0.0000  0.0000  0.0000 </r>
        <r>  0.0006  0.0006  0.0006  0.0006  0.0003  0.0003  0.0000  0.0003  0.0000  0.0000  0.0000  0.0000  0.0000  0.0000  0.0000  0.0000 </r>
        <r>  0.0347  0.0028  0.0028  0.0000  0.0000  0.0000  0.0000  0.0000  0.0000  0.0000  0.0000  0.0000  0.0000  0.0000  0.0000  0.0000 </r>
        <r>  0.0347  0.0000  0.0028  0.0028  0.0000  0.0000  0.0000  0.0000  0.0000  0.0000  0.0000  0.0000  0.0000  0.0000  0.0000  0.0000 </r>
        <r>  0.0347  0.0028  0.0000  0.0028  0.0000  0.0000  0.0000  0.0000  0.0000  0.0000  0.0000  0.0000  0.0000  0.0000  0.0000  0.0000 </r>
       </set>
       <set comment="band 11">
        <r>  0.0000  0.0001  0.0001  0.0001  0.0004  0.0004  0.0000  0.0004  0.0000  0.0000  0.0104  0.0000  0.0000  0.0000  0.0000  0.0000 </r>
        <r>  0.1983  0.0021  0.0021  0.0021  0.0000  0.0000  0.0000  0.0000  0.0000  0.0000  0.0000  0.0000  0.0000  0.0000  0.0000  0.0000 </r>
        <r>  0.0013  0.0003  0.0003  0.2270  0.0000  0.0000  0.0000  0.0000  0.0000  0.0000  0.0000  0.0000  0.0000  0.0000  0.0000  0.0000 </r>
        <r>  0.0013  0.2270  0.0003  0.0003  0.0000  0.0000  0.0000  0.0000  0.0000  0.0000  0.0000  0.0000  0.0000  0.0000  0.0000  0.0000 </r>
        <r>  0.0013  0.0003  0.2270  0.0003  0.0000  0.0000  0.0000  0.0000  0.0000  0.0000  0.0000  0.0000  0.0000  0.0000  0.0000  0.0000 </r>
       </set>
       <set comment="band 12">
        <r>  0.0062  0.0225  0.0225  0.0225  0.0033  0.0033  0.0000  0.0033  0.0000  0.0002  0.0001  0.0001  0.0003  0.0001  0.0000  0.0002 </r>
        <r>  0.0007  0.0001  0.0001  0.0001  0.0256  0.0256  0.0000  0.0256  0.0000  0.0000  0.0000  0.0000  0.0000  0.0000  0.0000  0.0000 </r>
        <r>  0.0000  0.1067  0.1066  0.0008  0.0000  0.0000  0.0000  0.0000  0.0000  0.0000  0.0000  0.0000  0.0000  0.0000  0.0000  0.0000 </r>
        <r>  0.0000  0.0008  0.1066  0.1067  0.0000  0.0000  0.0000  0.0000  0.0000  0.0000  0.0000  0.0000  0.0000  0.0000  0.0000  0.0000 </r>
        <r>  0.0000  0.1066  0.0008  0.1066  0.0000  0.0000  0.0000  0.0000  0.0000  0.0000  0.0000  0.0000  0.0000  0.0000  0.0000  0.0000 </r>
       </set>
       <set comment="band 13">
        <r>  0.0000  0.0001  0.0001  0.0003  0.0002  0.0005  0.0000  0.0002  0.0000  0.0000  0.0000  0.0000  0.0000  0.0000  0.0000  0.0000 </r>
        <r>  0.0000  0.0011  0.0012  0.0038  0.0000  0.0001  0.0822  0.0000  0.1983  0.0000  0.0000  0.0000  0.0000  0.0000  0.0000  0.0000 </r>
        <r>  0.0000  0.0001  0.0001  0.4489  0.0000  0.0000  0.0000  0.0000  0.0000  0.0000  0.0000  0.0000  0.0000  0.0000  0.0000  0.0000 </r>
        <r>  0.0000  0.1310  0.0008  0.0010  0.0000  0.0000  0.0000  0.0000  0.0000  0.0000  0.0000  0.0000  0.0000  0.0000  0.0000  0.0000 </r>
        <r>  0.0000  0.0008  0.1408  0.0010  0.0000  0.0000  0.0000  0.0000  0.0000  0.0000  0.0000  0.0000  0.0000  0.0000  0.0000  0.0000 </r>
       </set>
       <set comment="band 14">
        <r>  0.0000  0.0002  0.0002  0.0000  0.0004  0.0000  0.0000  0.0004  0.0000  0.0000  0.0000  0.0000  0.0000  0.0000  0.0000  0.0000 </r>
        <r>  0.0000  0.0030  0.0029  0.0003  0.0001  0.0000  0.1983  0.0001  0.0822  0.0000  0.0000  0.0000  0.0000  0.0000  0.0000  0.0000 </r>
        <r>  0.0000  0.0011  0.0011  0.0315  0.0000  0.0000  0.0000  0.0000  0.0000  0.0000  0.0000  0.0000  0.0000  0.0000  0.0000  0.0000 </r>
        <r>  0.0000  0.3494  0.0004  0.0003  0.0000  0.0000  0.0000  0.0000  0.0000  0.0000  0.0000  0.0000  0.0000  0.0000  0.0000  0.0000 </r>
        <r>  0.0000  0.0005  0.3396  0.0003  0.0000  0.0000  0.0000  0.0000  0.0000  0.0000  0.0000  0.0000  0.0000  0.0000  0.0000  0.0000 </r>
       </set>
       <set comment="band 15">
        <r>  0.0000  0.0324  0.0054  0.0420  0.0002  0.0018  0.0005  0.0014  0.0041  0.0001  0.0000  0.0001  0.0000  0.0001  0.0000  0.0001 </r>
        <r>  0.0000  0.0000  0.0000  0.0000  0.0052  0.0409  0.0001  0.0316  0.0009  0.0000  0.0000  0.0000  0.0000  0.0000  0.0000  0.0000 </r>
        <r>  0.0000  0.0237  0.1379  0.0013  0.0000  0.0000  0.0000  0.0000  0.0000  0.0000  0.0000  0.0000  0.0000  0.0000  0.0000  0.0000 </r>
        <r>  0.0000  0.0010  0.1752  0.0204  0.0000  0.0000  0.0000  0.0000  0.0000  0.0000  0.0000  0.0000  0.0000  0.0000  0.0000  0.0000 </r>
        <r>  0.0000  0.1659  0.0002  0.1253  0.0000  0.0000  0.0000  0.0000  0.0000  0.0000  0.0000  0.0000  0.0000  0.0000  0.0000  0.0000 </r>
       </set>
       <set comment="band 16">
        <r>  0.0000  0.0208  0.0478  0.0112  0.0020  0.0005  0.0041  0.0009  0.0005  0.0001  0.0000  0.0000  0.0003  0.0000  0.0000  0.0001 </r>
        <r>  0.0000  0.0000  0.0000  0.0000  0.0466  0.0109  0.0009  0.0203  0.0001  0.0000  0.0000  0.0000  0.0000  0.0000  0.0000  0.0000 </r>
        <r>  0.0000  0.1924  0.0782  0.0003  0.0000  0.0000  0.0000  0.0000  0.0000  0.0000  0.0000  0.0000  0.0000  0.0000  0.0000  0.0000 </r>
        <r>  0.0000  0.0006  0.0409  0.1957  0.0000  0.0000  0.0000  0.0000  0.0000  0.0000  0.0000  0.0000  0.0000  0.0000  0.0000  0.0000 </r>
        <r>  0.0000  0.0502  0.0014  0.0908  0.0000  0.0000  0.0000  0.0000  0.0000  0.0000  0.0000  0.0000  0.0000  0.0000  0.0000  0.0000 </r>
       </set>
       <set comment="band 17">
        <r>  0.0000  0.0000  0.0001  0.0003  0.0042  0.0109  0.0009  0.0015  0.0015  0.0080  0.0000  0.0119  0.0000  0.0005  0.0144  0.0000 </r>
        <r>  0.0000  0.0001  0.0003  0.0007  0.0000  0.0001  0.0004  0.0000  0.0007  0.0000  0.0000  0.0000  0.0000  0.0000  0.0000  0.0000 </r>
        <r>  0.0021  0.1639  0.2341  0.0013  0.0000  0.0000  0.0000  0.0000  0.0000  0.0000  0.0000  0.0000  0.0000  0.0000  0.0000  0.0000 </r>
        <r>  0.0003  0.0002  0.0089  0.1851  0.0000  0.0000  0.0000  0.0000  0.0000  0.0000  0.0000  0.0000  0.0000  0.0000  0.0000  0.0000 </r>
        <r>  0.0008  0.0029  0.0005  0.2492  0.0000  0.0000  0.0000  0.0000  0.0000  0.0000  0.0000  0.0000  0.0000  0.0000  0.0000  0.0000 </r>
       </set>
       <set comment="band 18">
        <r>  0.0000  0.0003  0.0002  0.0000  0.0069  0.0002  0.0015  0.0095  0.0009  0.0007  0.0000  0.0026  0.0001  0.0140  0.0088  0.0087 </r>
        <r>  0.0000  0.0006  0.0004  0.0000  0.0001  0.0000  0.0007  0.0001  0.0004  0.0000  0.0000  0.0000  0.0000  0.0000  0.0000  0.0000 </r>
        <r>  0.0000  0.1175  0.0473  0.0000  0.0000  0.0000  0.0000  0.0000  0.0000  0.0000  0.0000  0.0000  0.0000  0.0000  0.0000  0.0000 </r>
        <r>  0.0019  0.0011  0.2725  0.0963  0.0000  0.0000  0.0000  0.0000  0.0000  0.0000  0.0000  0.0000  0.0000  0.0000  0.0000  0.0000 </r>
        <r>  0.0014  0.2785  0.0008  0.0321  0.0000  0.0000  0.0000  0.0000  0.0000  0.0000  0.0000  0.0000  0.0000  0.0000  0.0000  0.0000 </r>
       </set>
       <set comment="band 19">
        <r>  0.0000  0.0000  0.0000  0.0000  0.0000  0.0000  0.0000  0.0000  0.0000  0.0064  0.0000  0.0106  0.0000  0.0106  0.0170  0.0064 </r>
        <r>  0.0000  0.0000  0.0000  0.0000  0.0000  0.0000  0.0000  0.0000  0.0000  0.0000  0.0000  0.0000  0.0000  0.0000  0.0000  0.0000 </r>
        <r>  0.0000  0.1445  0.1445  0.0000  0.0000  0.0000  0.0000  0.0000  0.0000  0.0000  0.0000  0.0000  0.0000  0.0000  0.0000  0.0000 </r>
        <r>  0.0000  0.0000  0.1445  0.1445  0.0000  0.0000  0.0000  0.0000  0.0000  0.0000  0.0000  0.0000  0.0000  0.0000  0.0000  0.0000 </r>
        <r>  0.0000  0.1445  0.0000  0.1445  0.0000  0.0000  0.0000  0.0000  0.0000  0.0000  0.0000  0.0000  0.0000  0.0000  0.0000  0.0000 </r>
       </set>
       <set comment="band 20">
        <r>  0.0000  0.0001  0.0002  0.0000  0.0001  0.0000  0.0024  0.0000  0.0003  0.2370  0.0000  0.1262  0.5504  0.0075  0.0001  0.0217 </r>
        <r>  0.0000  0.0000  0.0000  0.0000  0.0069  0.0004  0.0000  0.0046  0.0000  0.0000  0.0000  0.0000  0.0000  0.0000  0.0000  0.0000 </r>
        <r>  0.0000  0.0001  0.0000  0.0000  0.0000  0.0000  0.0000  0.0000  0.0000  0.0000  0.0000  0.0000  0.0000  0.0000  0.0000  0.0000 </r>
        <r>  0.0000  0.0000  0.0000  0.0002  0.0000  0.0000  0.0000  0.0000  0.0000  0.0000  0.0000  0.0000  0.0000  0.0000  0.0000  0.0000 </r>
        <r>  0.0000  0.0001  0.0000  0.0002  0.0000  0.0000  0.0000  0.0000  0.0000  0.0000  0.0000  0.0000  0.0000  0.0000  0.0000  0.0000 </r>
       </set>
       <set comment="band 21">
        <r>  0.0000  0.0001  0.0000  0.0002  0.0000  0.0001  0.0003  0.0000  0.0025  0.1552  0.0000  0.1094  0.0768  0.2289  0.0007  0.3717 </r>
        <r>  0.0000  0.0000  0.0000  0.0000  0.0009  0.0076  0.0000  0.0033  0.0000  0.0000  0.0000  0.0000  0.0000  0.0000  0.0000  0.0000 </r>
        <r>  0.0000  0.0001  0.0002  0.0000  0.0000  0.0000  0.0000  0.0000  0.0000  0.0000  0.0000  0.0000  0.0000  0.0000  0.0000  0.0000 </r>
        <r>  0.0000  0.0000  0.0002  0.0000  0.0000  0.0000  0.0000  0.0000  0.0000  0.0000  0.0000  0.0000  0.0000  0.0000  0.0000  0.0000 </r>
        <r>  0.0000  0.0001  0.0000  0.0000  0.0000  0.0000  0.0000  0.0000  0.0000  0.0000  0.0000  0.0000  0.0000  0.0000  0.0000  0.0000 </r>
       </set>
       <set comment="band 22">
        <r>  0.0002  0.0001  0.0001  0.0001  0.0000  0.0000  0.0000  0.0000  0.0000  0.1992  0.0001  0.1196  0.3188  0.1188  0.0000  0.1980 </r>
        <r>  0.0000  0.0000  0.0000  0.0000  0.0026  0.0027  0.0000  0.0027  0.0000  0.0000  0.0000  0.0000  0.0000  0.0000  0.0000  0.0000 </r>
        <r>  0.0000  0.0002  0.0002  0.0000  0.0000  0.0000  0.0000  0.0000  0.0000  0.0000  0.0000  0.0000  0.0000  0.0000  0.0000  0.0000 </r>
        <r>  0.0000  0.0000  0.0002  0.0002  0.0000  0.0000  0.0000  0.0000  0.0000  0.0000  0.0000  0.0000  0.0000  0.0000  0.0000  0.0000 </r>
        <r>  0.0000  0.0002  0.0000  0.0002  0.0000  0.0000  0.0000  0.0000  0.0000  0.0000  0.0000  0.0000  0.0000  0.0000  0.0000  0.0000 </r>
       </set>
       <set comment="band 23">
        <r>  0.0000  0.0000  0.0000  0.0000  0.0011  0.0011  0.0000  0.0011  0.0000  0.0000  0.9545  0.0000  0.0000  0.0000  0.0000  0.0000 </r>
        <r>  0.0013  0.0001  0.0001  0.0001  0.0004  0.0004  0.0000  0.0004  0.0000  0.0000  0.0000  0.0000  0.0000  0.0000  0.0000  0.0000 </r>
        <r>  0.0003  0.0001  0.0001  0.0049  0.0000  0.0000  0.0000  0.0000  0.0000  0.0000  0.0000  0.0000  0.0000  0.0000  0.0000  0.0000 </r>
        <r>  0.0003  0.0049  0.0001  0.0001  0.0000  0.0000  0.0000  0.0000  0.0000  0.0000  0.0000  0.0000  0.0000  0.0000  0.0000  0.0000 </r>
        <r>  0.0003  0.0001  0.0049  0.0001  0.0000  0.0000  0.0000  0.0000  0.0000  0.0000  0.0000  0.0000  0.0000  0.0000  0.0000  0.0000 </r>
       </set>
       <set comment="band 24">
        <r>  0.0000  0.0001  0.0000  0.0001  0.0004  0.0063  0.0000  0.0094  0.0002  0.0345  0.0000  0.0415  0.0000  0.1532  0.5946  0.1066 </r>
        <r>  0.0000  0.0002  0.0000  0.0001  0.0000  0.0000  0.0000  0.0000  0.0001  0.0000  0.0000  0.0000  0.0000  0.0000  0.0000  0.0000 </r>
        <r>  0.0020  0.0076  0.0004  0.0000  0.0000  0.0000  0.0000  0.0000  0.0000  0.0000  0.0000  0.0000  0.0000  0.0000  0.0000  0.0000 </r>
        <r>  0.0030  0.0001  0.0022  0.0069  0.0000  0.0000  0.0000  0.0000  0.0000  0.0000  0.0000  0.0000  0.0000  0.0000  0.0000  0.0000 </r>
        <r>  0.0001  0.0043  0.0000  0.0017  0.0000  0.0000  0.0000  0.0000  0.0000  0.0000  0.0000  0.0000  0.0000  0.0000  0.0000  0.0000 </r>
       </set>
       <set comment="band 25">
        <r>  0.0000  0.0000  0.0001  0.0000  0.0103  0.0045  0.0002  0.0013  0.0000  0.1983  0.0000  0.3461  0.0006  0.2343  0.0251  0.1262 </r>
        <r>  0.0000  0.0000  0.0002  0.0001  0.0000  0.0000  0.0001  0.0000  0.0000  0.0000  0.0000  0.0000  0.0000  0.0000  0.0000  0.0000 </r>
        <r>  0.0014  0.0001  0.0073  0.0000  0.0000  0.0000  0.0000  0.0000  0.0000  0.0000  0.0000  0.0000  0.0000  0.0000  0.0000  0.0000 </r>
        <r>  0.0004  0.0000  0.0055  0.0008  0.0000  0.0000  0.0000  0.0000  0.0000  0.0000  0.0000  0.0000  0.0000  0.0000  0.0000  0.0000 </r>
        <r>  0.0033  0.0034  0.0001  0.0060  0.0000  0.0000  0.0000  0.0000  0.0000  0.0000  0.0000  0.0000  0.0000  0.0000  0.0000  0.0000 </r>
       </set>
       <set comment="band 26">
        <r>  0.0000  0.0000  0.0000  0.0000  0.0000  0.0000  0.0000  0.0000  0.0000  0.1175  0.0000  0.1959  0.0000  0.1959  0.3134  0.1175 </r>
        <r>  0.0000  0.0000  0.0000  0.0000  0.0000  0.0000  0.0000  0.0000  0.0000  0.0000  0.0000  0.0000  0.0000  0.0000  0.0000  0.0000 </r>
        <r>  0.0000  0.0086  0.0086  0.0000  0.0000  0.0000  0.0000  0.0000  0.0000  0.0000  0.0000  0.0000  0.0000  0.0000  0.0000  0.0000 </r>
        <r>  0.0000  0.0000  0.0086  0.0086  0.0000  0.0000  0.0000  0.0000  0.0000  0.0000  0.0000  0.0000  0.0000  0.0000  0.0000  0.0000 </r>
        <r>  0.0000  0.0086  0.0000  0.0086  0.0000  0.0000  0.0000  0.0000  0.0000  0.0000  0.0000  0.0000  0.0000  0.0000  0.0000  0.0000 </r>
       </set>
       <set comment="band 27">
        <r>  0.0011  0.0016  0.0015  0.0015  0.1411  0.1376  0.0000  0.1368  0.0002  0.0005  0.0099  0.0003  0.0007  0.0003  0.0000  0.0005 </r>
        <r>  0.0000  0.0033  0.0034  0.0033  0.0533  0.0586  0.0000  0.0578  0.0000  0.0000  0.0000  0.0000  0.0000  0.0000  0.0000  0.0000 </r>
        <r>  0.0219  0.0083  0.0084  0.0015  0.0000  0.0000  0.0000  0.0000  0.0000  0.0000  0.0000  0.0000  0.0000  0.0000  0.0000  0.0000 </r>
        <r>  0.0217  0.0015  0.0090  0.0084  0.0000  0.0000  0.0000  0.0000  0.0000  0.0000  0.0000  0.0000  0.0000  0.0000  0.0000  0.0000 </r>
        <r>  0.0224  0.0091  0.0015  0.0088  0.0000  0.0000  0.0000  0.0000  0.0000  0.0000  0.0000  0.0000  0.0000  0.0000  0.0000  0.0000 </r>
       </set>
       <set comment="band 28">
        <r>  0.0000  0.0009  0.0000  0.0007  0.0023  0.1812  0.0002  0.2194  0.0149  0.0056  0.0000  0.0000  0.0000  0.0002  0.0113  0.0062 </r>
        <r>  0.0000  0.0044  0.0000  0.0036  0.0009  0.0789  0.0000  0.0955  0.0045  0.0000  0.0000  0.0000  0.0000  0.0000  0.0000  0.0000 </r>
        <r>  0.0259  0.0110  0.0190  0.0003  0.0000  0.0000  0.0000  0.0000  0.0000  0.0000  0.0000  0.0000  0.0000  0.0000  0.0000  0.0000 </r>
        <r>  0.0314  0.0003  0.0209  0.0138  0.0000  0.0000  0.0000  0.0000  0.0000  0.0000  0.0000  0.0000  0.0000  0.0000  0.0000  0.0000 </r>
        <r>  0.0003  0.0004  0.0000  0.0018  0.0000  0.0000  0.0000  0.0000  0.0000  0.0000  0.0000  0.0000  0.0000  0.0000  0.0000  0.0000 </r>
       </set>
       <set comment="band 29">
        <r>  0.0000  0.0002  0.0011  0.0003  0.2679  0.0939  0.0097  0.0552  0.0007  0.0015  0.0000  0.0088  0.0037  0.0085  0.0001  0.0008 </r>
        <r>  0.0000  0.0011  0.0054  0.0018  0.1022  0.0327  0.0047  0.0241  0.0000  0.0000  0.0000  0.0000  0.0000  0.0000  0.0000  0.0000 </r>
        <r>  0.0134  0.0112  0.0033  0.0001  0.0000  0.0000  0.0000  0.0000  0.0000  0.0000  0.0000  0.0000  0.0000  0.0000  0.0000  0.0000 </r>
        <r>  0.0078  0.0001  0.0019  0.0079  0.0000  0.0000  0.0000  0.0000  0.0000  0.0000  0.0000  0.0000  0.0000  0.0000  0.0000  0.0000 </r>
        <r>  0.0382  0.0216  0.0004  0.0222  0.0000  0.0000  0.0000  0.0000  0.0000  0.0000  0.0000  0.0000  0.0000  0.0000  0.0000  0.0000 </r>
       </set>
       <set comment="band 30">
        <r>  0.0000  0.0002  0.0000  0.0000  0.0273  0.0282  0.0014  0.0830  0.0019  0.0046  0.0000  0.0029  0.0019  0.0042  0.0026  0.0003 </r>
        <r>  0.0000  0.0009  0.0003  0.0003  0.1037  0.1184  0.0003  0.4388  0.0009  0.0000  0.0000  0.0000  0.0000  0.0000  0.0000  0.0000 </r>
        <r>  0.0033  0.0138  0.0184  0.0000  0.0000  0.0000  0.0000  0.0000  0.0000  0.0000  0.0000  0.0000  0.0000  0.0000  0.0000  0.0000 </r>
        <r>  0.0097  0.0001  0.0012  0.0010  0.0000  0.0000  0.0000  0.0000  0.0000  0.0000  0.0000  0.0000  0.0000  0.0000  0.0000  0.0000 </r>
        <r>  0.0032  0.0152  0.0000  0.0184  0.0000  0.0000  0.0000  0.0000  0.0000  0.0000  0.0000  0.0000  0.0000  0.0000  0.0000  0.0000 </r>
       </set>
       <set comment="band 31">
        <r>  0.0000  0.0000  0.0001  0.0001  0.0848  0.0363  0.0012  0.0068  0.0031  0.0017  0.0000  0.0015  0.0033  0.0011  0.0009  0.0062 </r>
        <r>  0.0000  0.0001  0.0008  0.0004  0.2031  0.4315  0.0007  0.0418  0.0003  0.0000  0.0000  0.0000  0.0000  0.0000  0.0000  0.0000 </r>
        <r>  0.0043  0.0051  0.0087  0.0001  0.0000  0.0000  0.0000  0.0000  0.0000  0.0000  0.0000  0.0000  0.0000  0.0000  0.0000  0.0000 </r>
        <r>  0.0008  0.0000  0.0249  0.0178  0.0000  0.0000  0.0000  0.0000  0.0000  0.0000  0.0000  0.0000  0.0000  0.0000  0.0000  0.0000 </r>
        <r>  0.0099  0.0123  0.0000  0.0018  0.0000  0.0000  0.0000  0.0000  0.0000  0.0000  0.0000  0.0000  0.0000  0.0000  0.0000  0.0000 </r>
       </set>
       <set comment="band 32">
        <r>  0.0003  0.0000  0.0000  0.0000  0.0274  0.0743  0.0004  0.0486  0.0114  0.0008  0.0000  0.0014  0.0038  0.0004  0.0001  0.0003 </r>
        <r>  0.0000  0.0003  0.0002  0.0005  0.3719  0.1244  0.0000  0.1752  0.0000  0.0000  0.0000  0.0000  0.0000  0.0000  0.0000  0.0000 </r>
        <r>  0.0081  0.0118  0.0028  0.0005  0.0000  0.0000  0.0000  0.0000  0.0000  0.0000  0.0000  0.0000  0.0000  0.0000  0.0000  0.0000 </r>
        <r>  0.0054  0.0006  0.0046  0.0172  0.0000  0.0000  0.0000  0.0000  0.0000  0.0000  0.0000  0.0000  0.0000  0.0000  0.0000  0.0000 </r>
        <r>  0.0029  0.0056  0.0006  0.0067  0.0000  0.0000  0.0000  0.0000  0.0000  0.0000  0.0000  0.0000  0.0000  0.0000  0.0000  0.0000 </r>
       </set>
      </set>
     </set>
    </set>
   </array>
  </projected>
 </calculation>
 <structure name="finalpos" >
  <crystal>
   <varray name="basis" >
    <v>       3.94016227       0.00000000       0.00000000 </v>
    <v>       0.00000000       3.94016227       0.00000000 </v>
    <v>       0.00000000       0.00000000       3.94016227 </v>
   </varray>
   <i name="volume">     61.17054158 </i>
   <varray name="rec_basis" >
    <v>       0.25379665       0.00000000       0.00000000 </v>
    <v>       0.00000000       0.25379665       0.00000000 </v>
    <v>       0.00000000       0.00000000       0.25379665 </v>
   </varray>
  </crystal>
  <varray name="positions" >
   <v>       0.00000000       0.00000000       0.00000000 </v>
   <v>       0.50000000       0.50000000       0.50000000 </v>
   <v>       0.00000000       0.50000000       0.50000000 </v>
   <v>       0.50000000       0.00000000       0.50000000 </v>
   <v>       0.50000000       0.50000000       0.00000000 </v>
  </varray>
 </structure>
</modeling>
