Pt cube particle                        
           1
    18.000000    0.000000    0.000000
     0.000000   18.000000    0.000000
     0.000000    0.000000   18.000000
   Zr   O 
  38   1
Direct configuration=     1
   0.72257430  0.57309990  0.50020326
   0.57310093  0.72257403  0.50020304
   0.27768266  0.57328361  0.50008765
   0.42649001  0.72224946  0.50032579
   0.27752107  0.42669729  0.49967158
   0.42669656  0.27752145  0.49967177
   0.72224904  0.42648933  0.50032604
   0.57328263  0.27768254  0.50008798
   0.66896875  0.49995173  0.61818177
   0.33052645  0.49955494  0.61777083
   0.49995230  0.66896893  0.61818181
   0.49955423  0.33052680  0.61777078
   0.64859535  0.64859483  0.60775332
   0.35179083  0.64787838  0.60867190
   0.35095914  0.35095981  0.60785692
   0.64787761  0.35179055  0.60867192
   0.66669582  0.49992260  0.38142030
   0.33324668  0.50023761  0.38106483
   0.49992331  0.66669587  0.38141995
   0.50023715  0.33324678  0.38106528
   0.64822278  0.64822213  0.39408735
   0.35147837  0.64865839  0.39385916
   0.35173155  0.35173198  0.39365192
   0.64865782  0.35147791  0.39385971
   0.57638974  0.57638949  0.70826448
   0.42473085  0.57491493  0.70837530
   0.42323825  0.42323859  0.70830097
   0.57491455  0.42473071  0.70837515
   0.57501197  0.57501134  0.28935832
   0.42501837  0.57524295  0.28921835
   0.42516456  0.42516441  0.28927688
   0.57524302  0.42501779  0.28921884
   0.49988834  0.49988836  0.60266917
   0.42580374  0.42580397  0.49972068
   0.42585642  0.57400848  0.49972903
   0.49998908  0.49998890  0.39412654
   0.57405800  0.57405761  0.49977677
   0.57400827  0.42585608  0.49972915
   0.49766952  0.49766954  0.77199549
Direct configuration=     2
   0.72415822  0.57380128  0.50031168
   0.57379964  0.72413152  0.50025161
   0.27614313  0.57400233  0.50010423
   0.42576131  0.72378345  0.50040625
   0.27600312  0.42598735  0.49969917
   0.42594794  0.27597858  0.49966236
   0.72381112  0.42574645  0.50034397
   0.57407937  0.27615034  0.50007209
   0.67059023  0.49992586  0.61951090
   0.32890650  0.49946230  0.61906590
   0.49996681  0.67055403  0.61952020
   0.49961058  0.32891610  0.61908061
   0.64986391  0.64975876  0.60827742
   0.35050882  0.64912682  0.60918123
   0.34964154  0.34975916  0.60833254
   0.64901791  0.35055322  0.60917922
   0.66855870  0.49989994  0.38019754
   0.33141076  0.50021005  0.37986674
   0.49986620  0.66854099  0.38015678
   0.50016321  0.33141245  0.37984514
   0.64913903  0.64925303  0.39311369
   0.35053053  0.64962196  0.39295830
   0.35079544  0.35072897  0.39271910
   0.64968699  0.35056214  0.39295016
   0.57679628  0.57683269  0.70963754
   0.42431820  0.57544374  0.70972995
   0.42276857  0.42279281  0.70960512
   0.57542468  0.42436354  0.70978703
   0.57562539  0.57551194  0.28796337
   0.42448634  0.57584863  0.28785067
   0.42456511  0.42461191  0.28794718
   0.57577479  0.42441626  0.28781583
   0.49987421  0.49986754  0.60274994
   0.42597220  0.42599762  0.49980754
   0.42605236  0.57382240  0.49977893
   0.49997807  0.49997876  0.39445094
   0.57386872  0.57387042  0.49986742
   0.57381028  0.42605339  0.49978503
   0.49772379  0.49772124  0.77241669
Direct configuration=     3
   0.72890996  0.57590541  0.50063694
   0.57589579  0.72880401  0.50039732
   0.27152457  0.57615848  0.50015395
   0.42357519  0.72838542  0.50064761
   0.27144929  0.42385753  0.49978196
   0.42370210  0.27134997  0.49963413
   0.72849735  0.42351781  0.50039778
   0.57646956  0.27155373  0.50002443
   0.67545468  0.49984827  0.62349828
   0.32404663  0.49918438  0.62295108
   0.50001032  0.67530931  0.62353537
   0.49977962  0.32408402  0.62301009
   0.65366962  0.65325058  0.60984971
   0.34666277  0.65287217  0.61070922
   0.34568877  0.34615719  0.60975939
   0.65243881  0.34684124  0.61070115
   0.67414734  0.49983197  0.37652925
   0.32590300  0.50012737  0.37627244
   0.49969487  0.67407636  0.37636726
   0.49994140  0.32590945  0.37618470
   0.65188779  0.65234574  0.39019272
   0.34768703  0.65251265  0.39025574
   0.34798711  0.34771995  0.38992066
   0.65277452  0.34781483  0.39022152
   0.57801591  0.57816230  0.71375672
   0.42308024  0.57703020  0.71379392
   0.42135952  0.42145546  0.71351754
   0.57695507  0.42326205  0.71402264
   0.57746564  0.57701375  0.28377854
   0.42289025  0.57766566  0.28374762
   0.42276676  0.42295443  0.28395806
   0.57737011  0.42261166  0.28360679
   0.49983179  0.49980509  0.60299227
   0.42647758  0.42657857  0.50006814
   0.42664018  0.57326416  0.49992862
   0.49994506  0.49994835  0.39542413
   0.57330087  0.57330885  0.50013938
   0.57321631  0.42664530  0.49995265
   0.49788662  0.49787635  0.77368028
Direct configuration=     4
   0.73841345  0.58011367  0.50128746
   0.58008810  0.73814898  0.50068875
   0.26228744  0.58047078  0.50025339
   0.41920297  0.73758938  0.50113033
   0.26234162  0.41959788  0.49994754
   0.41921042  0.26209274  0.49957768
   0.73786983  0.41906052  0.50050539
   0.58124995  0.26236052  0.49992910
   0.68518358  0.49969309  0.63147305
   0.31432690  0.49862854  0.63072145
   0.50009734  0.68481987  0.63156573
   0.50011772  0.31441986  0.63086904
   0.66128102  0.66023422  0.61299430
   0.33897069  0.66036285  0.61376519
   0.33778321  0.33895325  0.61261310
   0.65928060  0.33941727  0.61374500
   0.68532461  0.49969603  0.36919268
   0.31488748  0.49996200  0.36908385
   0.49935222  0.68514709  0.36878822
   0.49949778  0.31490345  0.36886382
   0.65738529  0.65853115  0.38435079
   0.34200002  0.65829404  0.38485062
   0.34237044  0.34170190  0.38432377
   0.65894959  0.34232020  0.38476422
   0.58045517  0.58082151  0.72199509
   0.42060432  0.58020311  0.72192186
   0.41854144  0.41878077  0.72134238
   0.58001584  0.42105906  0.72249386
   0.58114615  0.58001737  0.27540887
   0.41969808  0.58129973  0.27554152
   0.41917005  0.41963948  0.27597984
   0.58056075  0.41900245  0.27518871
   0.49974697  0.49968018  0.60347692
   0.42748833  0.42774047  0.50058932
   0.42781582  0.57214768  0.50022800
   0.49987904  0.49988752  0.39737051
   0.57216516  0.57218571  0.50068330
   0.57202836  0.42782912  0.50028791
   0.49821227  0.49818656  0.77620746
Direct configuration=     5
   0.74063573  0.58122124  0.50165122
   0.58121163  0.74030516  0.50091830
   0.26015273  0.58173860  0.50042510
   0.41794814  0.73974417  0.50145730
   0.26017364  0.41835499  0.50013406
   0.41801487  0.25995529  0.49977461
   0.74006984  0.41784981  0.50070829
   0.58256371  0.26025699  0.50000581
   0.68849552  0.49958459  0.63385815
   0.31107072  0.49859404  0.63307058
   0.50013306  0.68808479  0.63390321
   0.50010956  0.31120725  0.63320828
   0.66333668  0.66212077  0.61358566
   0.33690954  0.66232647  0.61428766
   0.33568936  0.33693867  0.61311066
   0.66119959  0.33734439  0.61427853
   0.68899232  0.49967861  0.36697539
   0.31123788  0.49998276  0.36696982
   0.49928779  0.68881045  0.36653514
   0.49948857  0.31121958  0.36669675
   0.65859290  0.65997854  0.38252992
   0.34061205  0.65967599  0.38315125
   0.34104014  0.34025626  0.38245515
   0.66035935  0.34104155  0.38296889
   0.58130547  0.58167300  0.72418201
   0.41970068  0.58126042  0.72404316
   0.41763241  0.41791274  0.72335945
   0.58099455  0.42028838  0.72473660
   0.58222292  0.58091587  0.27346498
   0.41878108  0.58239445  0.27362206
   0.41803981  0.41857444  0.27412304
   0.58157953  0.41792218  0.27330576
   0.49970705  0.49963882  0.60984159
   0.42257126  0.42281185  0.50088166
   0.42291836  0.57706317  0.50049920
   0.49989629  0.49988642  0.39064879
   0.57710025  0.57713201  0.50093964
   0.57691369  0.42293200  0.50046796
   0.49831135  0.49832329  0.77722437
Direct configuration=     6
   0.74168391  0.58174365  0.50182280
   0.58174157  0.74132217  0.50102657
   0.25914584  0.58233660  0.50050609
   0.41735627  0.74076053  0.50161153
   0.25915107  0.41776875  0.50022203
   0.41745096  0.25894711  0.49986749
   0.74110752  0.41727876  0.50080400
   0.58318337  0.25926481  0.50004199
   0.69005767  0.49953342  0.63498314
   0.30953488  0.49857776  0.63417860
   0.50014991  0.68962476  0.63500573
   0.50010571  0.30969195  0.63431164
   0.66430628  0.66301060  0.61386459
   0.33593736  0.66325265  0.61453409
   0.33470176  0.33598846  0.61334534
   0.66210472  0.33636667  0.61453018
   0.69072227  0.49967039  0.36592956
   0.30951647  0.49999255  0.36597270
   0.49925741  0.69053835  0.36547242
   0.49948423  0.30948200  0.36567461
   0.65916249  0.66066124  0.38167107
   0.33995738  0.66032781  0.38234971
   0.34041268  0.33957440  0.38157378
   0.66102429  0.34043845  0.38212208
   0.58170652  0.58207462  0.72521352
   0.41927446  0.58175913  0.72504372
   0.41720364  0.41750331  0.72431085
   0.58145618  0.41992487  0.72579444
   0.58273080  0.58133966  0.27254810
   0.41834856  0.58291080  0.27271670
   0.41750671  0.41807210  0.27324725
   0.58206006  0.41741264  0.27241763
   0.49968821  0.49961931  0.61284363
   0.42025201  0.42048715  0.50101955
   0.42060837  0.57938166  0.50062711
   0.49990443  0.49988590  0.38747835
   0.57942799  0.57946504  0.50106054
   0.57921796  0.42062217  0.50055288
   0.49835808  0.49838779  0.77770401
Direct configuration=     7
   0.74079005  0.58132607  0.50193189
   0.58134572  0.74043833  0.50112510
   0.25999278  0.58198975  0.50061609
   0.41771595  0.73993562  0.50174819
   0.25991735  0.41811051  0.50032988
   0.41789214  0.25979514  0.50005523
   0.74024623  0.41769820  0.50094655
   0.58274918  0.26013110  0.50016446
   0.68905594  0.49950597  0.63390654
   0.31058407  0.49872224  0.63314820
   0.50015163  0.68864289  0.63386763
   0.49998893  0.31074900  0.63323844
   0.66369619  0.66244710  0.61355193
   0.33659445  0.66259828  0.61420482
   0.33540270  0.33654353  0.61307118
   0.66160260  0.33691584  0.61422117
   0.68949584  0.49970653  0.36692886
   0.31070986  0.50004660  0.36699338
   0.49930071  0.68935278  0.36652143
   0.49960899  0.31063581  0.36670763
   0.65851163  0.65996509  0.38176597
   0.34052847  0.65973425  0.38237344
   0.34100979  0.34021057  0.38154229
   0.66034588  0.34103021  0.38210550
   0.58174625  0.58205164  0.72450445
   0.41920403  0.58172968  0.72437358
   0.41725196  0.41754391  0.72363388
   0.58139738  0.41984926  0.72509065
   0.58264421  0.58137147  0.27349930
   0.41838764  0.58285426  0.27364136
   0.41751674  0.41803407  0.27411922
   0.58210174  0.41747423  0.27342340
   0.49969773  0.49961689  0.61259507
   0.41984458  0.42002602  0.50110558
   0.42015300  0.57982681  0.50078050
   0.49991980  0.49990643  0.38679956
   0.57990722  0.57993290  0.50108603
   0.57967425  0.42016062  0.50062118
   0.49831639  0.49839039  0.77766045
Direct configuration=     8
   0.73947199  0.58071033  0.50209275
   0.58076200  0.73913504  0.50127038
   0.26124164  0.58147829  0.50077829
   0.41824632  0.73871924  0.50194971
   0.26104729  0.41861446  0.50048891
   0.41854269  0.26104562  0.50033207
   0.73897621  0.41831670  0.50115676
   0.58210893  0.26140849  0.50034505
   0.68757883  0.49946548  0.63231901
   0.31213117  0.49893529  0.63162881
   0.50015416  0.68719506  0.63218943
   0.49981674  0.31230770  0.63165594
   0.66279658  0.66161618  0.61309090
   0.33756337  0.66163337  0.61371930
   0.33643629  0.33736203  0.61266691
   0.66086219  0.33772563  0.61376551
   0.68768740  0.49975983  0.36840239
   0.31246959  0.50012630  0.36849844
   0.49936457  0.68760457  0.36806825
   0.49979295  0.31233718  0.36823088
   0.65755189  0.65893857  0.38190591
   0.34137057  0.65885900  0.38240844
   0.34189026  0.34114866  0.38149585
   0.65934550  0.34190279  0.38208105
   0.58180482  0.58201774  0.72345890
   0.41910019  0.58168627  0.72338542
   0.41732321  0.41760377  0.72263564
   0.58131067  0.41973778  0.72405286
   0.58251653  0.58141837  0.27490189
   0.41844527  0.58277087  0.27500483
   0.41753151  0.41797799  0.27540501
   0.58216320  0.41756505  0.27490649
   0.49971176  0.49961334  0.61222855
   0.41924380  0.41934604  0.50123244
   0.41948154  0.58048321  0.50100669
   0.49994248  0.49993670  0.38579864
   0.58061389  0.58062279  0.50112360
   0.58034707  0.41948004  0.50072190
   0.49825492  0.49839422  0.77759620
Direct configuration=     9
   0.73683588  0.57947883  0.50241447
   0.57959457  0.73652847  0.50156094
   0.26373937  0.58045538  0.50110269
   0.41930706  0.73628647  0.50235275
   0.26330718  0.41962236  0.50080698
   0.41984378  0.26354658  0.50088574
   0.73643616  0.41955369  0.50157716
   0.58082844  0.26396327  0.50070624
   0.68462460  0.49938452  0.62914397
   0.31522537  0.49936138  0.62859002
   0.50015923  0.68429939  0.62883304
   0.49947235  0.31542510  0.62849094
   0.66099736  0.65995435  0.61216885
   0.33950122  0.65970354  0.61274826
   0.33850348  0.33899902  0.61185837
   0.65938138  0.33934521  0.61285420
   0.68407051  0.49986643  0.37134944
   0.31598904  0.50028571  0.37150856
   0.49949228  0.68410815  0.37116189
   0.50016088  0.31573992  0.37127740
   0.65563240  0.65688554  0.38218579
   0.34305478  0.65710850  0.38247845
   0.34365120  0.34302483  0.38140298
   0.65734476  0.34364797  0.38203216
   0.58192196  0.58194995  0.72136778
   0.41889250  0.58159943  0.72140909
   0.41746572  0.41772349  0.72063916
   0.58113726  0.41951481  0.72197730
   0.58226115  0.58151217  0.27770708
   0.41856053  0.58260411  0.27773176
   0.41756107  0.41786583  0.27797658
   0.58228612  0.41774668  0.27787265
   0.49973982  0.49960623  0.61149551
   0.41804224  0.41798609  0.50148615
   0.41813862  0.58179601  0.50145906
   0.49998783  0.49999724  0.38379679
   0.58202722  0.58200258  0.50119876
   0.58169271  0.41811887  0.50092334
   0.49813199  0.49840188  0.77746771
Direct configuration=    10
   0.73871865  0.58035839  0.50218469
   0.58042837  0.73839014  0.50135341
   0.26195544  0.58118597  0.50087100
   0.41854945  0.73802401  0.50206489
   0.26169312  0.41890250  0.50057981
   0.41891451  0.26176034  0.50049029
   0.73825032  0.41867020  0.50127690
   0.58174299  0.26213859  0.50044827
   0.68673457  0.49944234  0.63141166
   0.31301542  0.49905705  0.63076039
   0.50015561  0.68636754  0.63123025
   0.49971832  0.31319859  0.63075145
   0.66228240  0.66114127  0.61282740
   0.33811717  0.66108187  0.61344180
   0.33702705  0.33782984  0.61243585
   0.66043901  0.33818847  0.61350508
   0.68665377  0.49979030  0.36924459
   0.31347537  0.50017186  0.36935866
   0.49940107  0.68660537  0.36895234
   0.49989810  0.31330961  0.36910151
   0.65700334  0.65835186  0.38198590
   0.34185188  0.65835874  0.38242845
   0.34239349  0.34168483  0.38146931
   0.65877373  0.34240153  0.38206708
   0.58183830  0.58199837  0.72286130
   0.41904084  0.58166145  0.72282063
   0.41736394  0.41763798  0.72206509
   0.58126112  0.41967406  0.72345971
   0.58244355  0.58144518  0.27570355
   0.41847821  0.58272322  0.27578412
   0.41753996  0.41794593  0.27613991
   0.58219832  0.41761696  0.27575415
   0.49971978  0.49961131  0.61201907
   0.41890042  0.41895740  0.50130494
   0.41909776  0.58085838  0.50113597
   0.49995544  0.49995400  0.38522655
   0.58101779  0.58101711  0.50114508
   0.58073162  0.41909105  0.50077947
   0.49821979  0.49839641  0.77755948
Direct configuration=    11
   0.73862268  0.58029685  0.50243804
   0.58041242  0.73832095  0.50154760
   0.26201943  0.58126459  0.50104429
   0.41850113  0.73798031  0.50231505
   0.26173941  0.41883455  0.50074254
   0.41894720  0.26183985  0.50078263
   0.73817972  0.41866210  0.50150094
   0.58174044  0.26220253  0.50065120
   0.68641914  0.49939579  0.63091635
   0.31336302  0.49923670  0.63028556
   0.50018729  0.68608667  0.63063313
   0.49960918  0.31355303  0.63023831
   0.66236782  0.66128149  0.61295573
   0.33801127  0.66115435  0.61358304
   0.33701067  0.33765483  0.61257629
   0.66063798  0.33802094  0.61361264
   0.68631193  0.49984177  0.36984224
   0.31379841  0.50022819  0.36997005
   0.49943329  0.68634631  0.36963268
   0.50004418  0.31355636  0.36976946
   0.65677102  0.65809163  0.38134456
   0.34199122  0.65820583  0.38180754
   0.34260454  0.34190301  0.38073029
   0.65852666  0.34253197  0.38137031
   0.58200338  0.58209211  0.72246412
   0.41883807  0.58175650  0.72251548
   0.41726723  0.41755297  0.72175078
   0.58128992  0.41945725  0.72314880
   0.58273195  0.58190912  0.27606774
   0.41814383  0.58301482  0.27611112
   0.41711622  0.41750394  0.27646821
   0.58263078  0.41730400  0.27615390
   0.49979246  0.49965643  0.61201393
   0.41918845  0.41923070  0.50118978
   0.41944799  0.58055130  0.50109467
   0.49993819  0.49997072  0.38561041
   0.58070442  0.58065095  0.50099622
   0.58046158  0.41942786  0.50065317
   0.49819547  0.49843072  0.77747121
Direct configuration=    12
   0.73850436  0.58022098  0.50275036
   0.58039275  0.73823566  0.50178699
   0.26209832  0.58136153  0.50125793
   0.41844156  0.73792644  0.50262346
   0.26179648  0.41875078  0.50094316
   0.41898750  0.26193787  0.50114303
   0.73809268  0.41865211  0.50177714
   0.58173730  0.26228137  0.50090138
   0.68603026  0.49933840  0.63030573
   0.31379154  0.49945818  0.62970018
   0.50022635  0.68574042  0.62989700
   0.49947464  0.31398999  0.62960569
   0.66247312  0.66145436  0.61311394
   0.33788072  0.66124370  0.61375717
   0.33699047  0.33743906  0.61274944
   0.66088329  0.33781440  0.61374523
   0.68589051  0.49990523  0.37057903
   0.31419667  0.50029764  0.37072378
   0.49947302  0.68602695  0.37047142
   0.50022427  0.31386056  0.37059293
   0.65648461  0.65777081  0.38055390
   0.34216301  0.65801733  0.38104206
   0.34286473  0.34217199  0.37981920
   0.65822206  0.34269278  0.38051131
   0.58220690  0.58220767  0.72197448
   0.41858809  0.58187368  0.72213930
   0.41714801  0.41744816  0.72136329
   0.58132543  0.41918996  0.72276550
   0.58308751  0.58248108  0.27651671
   0.41773159  0.58337432  0.27651424
   0.41659383  0.41695904  0.27687295
   0.58316392  0.41691818  0.27664672
   0.49988206  0.49971206  0.61200760
   0.41954355  0.41956762  0.50104781
   0.41987975  0.58017273  0.50104376
   0.49991691  0.49999134  0.38608363
   0.58031809  0.58019954  0.50081270
   0.58012868  0.41984309  0.50049747
   0.49816548  0.49847302  0.77736238
Direct configuration=    13
   0.73826773  0.58006924  0.50337502
   0.58035341  0.73806506  0.50226578
   0.26225611  0.58155539  0.50168520
   0.41832241  0.73781869  0.50324027
   0.26191062  0.41858324  0.50134439
   0.41906811  0.26213392  0.50186384
   0.73791860  0.41863213  0.50232955
   0.58173101  0.26243903  0.50140173
   0.68525251  0.49922361  0.62908448
   0.31464859  0.49990113  0.62852942
   0.50030447  0.68504790  0.62842472
   0.49920555  0.31486392  0.62834046
   0.66268372  0.66180010  0.61343036
   0.33761963  0.66142242  0.61410542
   0.33695007  0.33700754  0.61309574
   0.66137389  0.33740131  0.61401043
   0.68504766  0.50003214  0.37205261
   0.31499318  0.50043653  0.37223124
   0.49955248  0.68538821  0.37214890
   0.50058445  0.31446896  0.37223985
   0.65591178  0.65712916  0.37897258
   0.34250658  0.65764031  0.37951111
   0.34338510  0.34270995  0.37799703
   0.65761286  0.34301440  0.37879332
   0.58261394  0.58243880  0.72099519
   0.41808813  0.58210804  0.72138693
   0.41690956  0.41723854  0.72058831
   0.58139644  0.41865538  0.72199890
   0.58379862  0.58362499  0.27741466
   0.41690712  0.58409331  0.27732049
   0.41554905  0.41586925  0.27768243
   0.58423019  0.41614655  0.27763236
   0.50006125  0.49982331  0.61199494
   0.42025373  0.42024147  0.50076387
   0.42074328  0.57941559  0.50094195
   0.49987437  0.50003258  0.38703007
   0.57954543  0.57929673  0.50044565
   0.57946286  0.42067354  0.50018606
   0.49810550  0.49855763  0.77714473
Direct configuration=    14
   0.73842342  0.58016908  0.50296403
   0.58037929  0.73817730  0.50195076
   0.26215229  0.58142784  0.50140408
   0.41840080  0.73788958  0.50283444
   0.26183552  0.41869347  0.50108040
   0.41901508  0.26200493  0.50138959
   0.73803313  0.41864527  0.50196610
   0.58173515  0.26233530  0.50107252
   0.68576423  0.49929913  0.62988800
   0.31408469  0.49960969  0.62929972
   0.50025307  0.68550354  0.62939340
   0.49938260  0.31428892  0.62917291
   0.66254516  0.66157262  0.61322218
   0.33779142  0.66130483  0.61387629
   0.33697665  0.33729146  0.61286789
   0.66105110  0.33767310  0.61383595
   0.68560221  0.49994864  0.37108307
   0.31446912  0.50034514  0.37123941
   0.49950020  0.68580846  0.37104521
   0.50034747  0.31406866  0.37115626
   0.65628867  0.65755133  0.38001300
   0.34228053  0.65788837  0.38051840
   0.34304272  0.34235600  0.37919593
   0.65801368  0.34280279  0.37992367
   0.58234613  0.58228673  0.72163951
   0.41841707  0.58195384  0.72188195
   0.41706645  0.41737646  0.72109820
   0.58134972  0.41900711  0.72250328
   0.58333074  0.58287235  0.27682386
   0.41744958  0.58362025  0.27679002
   0.41623646  0.41658628  0.27714984
   0.58352864  0.41665424  0.27698386
   0.49994335  0.49975011  0.61200327
   0.41978647  0.41979811  0.50095069
   0.42017512  0.57991375  0.50100894
   0.49990236  0.50000545  0.38640736
   0.58005380  0.57989073  0.50068715
   0.57990093  0.42012715  0.50039095
   0.49814496  0.49850196  0.77728793
Direct configuration=    15
   0.73819960  0.58030309  0.50342925
   0.58061105  0.73801002  0.50228143
   0.26235310  0.58180927  0.50167078
   0.41808023  0.73773739  0.50323619
   0.26207081  0.41837200  0.50135327
   0.41876650  0.26220159  0.50184957
   0.73786989  0.41834012  0.50227563
   0.58203179  0.26249459  0.50144788
   0.68583538  0.49924102  0.62960166
   0.31403671  0.49977740  0.62894684
   0.50030612  0.68561571  0.62896854
   0.49932507  0.31424868  0.62883724
   0.66266952  0.66177853  0.61337708
   0.33753619  0.66153062  0.61412067
   0.33688054  0.33701243  0.61309723
   0.66131799  0.33739667  0.61397170
   0.68582977  0.49999843  0.37176656
   0.31425524  0.50045020  0.37189122
   0.49948130  0.68615600  0.37181856
   0.50051309  0.31373508  0.37192296
   0.65596464  0.65722626  0.37899638
   0.34248265  0.65768364  0.37958392
   0.34338963  0.34263876  0.37803295
   0.65773514  0.34295378  0.37886789
   0.58256681  0.58241844  0.72107379
   0.41816163  0.58206206  0.72146592
   0.41691439  0.41726471  0.72067156
   0.58135625  0.41868030  0.72209688
   0.58366925  0.58351167  0.27737454
   0.41702323  0.58392538  0.27731610
   0.41567784  0.41602446  0.27773721
   0.58400964  0.41629203  0.27757017
   0.50007331  0.49983007  0.61261137
   0.41950680  0.41957186  0.50077500
   0.41996898  0.58019202  0.50092501
   0.49981477  0.49996611  0.38566011
   0.58036896  0.58008350  0.50047221
   0.58022332  0.41988804  0.50021721
   0.49812288  0.49857807  0.77668749
Direct configuration=    16
   0.73793284  0.58046279  0.50398371
   0.58088726  0.73781066  0.50267552
   0.26259242  0.58226386  0.50198863
   0.41769817  0.73755602  0.50371500
   0.26235122  0.41798888  0.50167847
   0.41847025  0.26243597  0.50239777
   0.73767535  0.41797643  0.50264454
   0.58238532  0.26268444  0.50189524
   0.68592017  0.49917176  0.62926041
   0.31397952  0.49997728  0.62852629
   0.50036934  0.68574939  0.62846220
   0.49925652  0.31420072  0.62843718
   0.66281775  0.66202393  0.61356171
   0.33723201  0.66179972  0.61441193
   0.33676599  0.33667989  0.61337056
   0.66163607  0.33706722  0.61413349
   0.68610097  0.50005776  0.37258115
   0.31400035  0.50057541  0.37266805
   0.49945877  0.68657018  0.37274024
   0.50071046  0.31333752  0.37283670
   0.65557846  0.65683884  0.37778478
   0.34272354  0.65743965  0.37847022
   0.34380307  0.34297576  0.37664692
   0.65740318  0.34313373  0.37760961
   0.58282982  0.58257542  0.72039957
   0.41785720  0.58219102  0.72097009
   0.41673317  0.41713152  0.72016309
   0.58136402  0.41829082  0.72161253
   0.58407269  0.58427361  0.27803085
   0.41651512  0.58428902  0.27794307
   0.41501208  0.41535488  0.27843724
   0.58458289  0.41586035  0.27826894
   0.50022819  0.49992537  0.61333609
   0.41917349  0.41930221  0.50056560
   0.41972329  0.58052366  0.50082499
   0.49971038  0.49991922  0.38476954
   0.58074456  0.58031325  0.50021605
   0.58060754  0.41960306  0.50001015
   0.49809656  0.49866876  0.77597188
Direct configuration=    17
   0.73739934  0.58078221  0.50509262
   0.58143967  0.73741192  0.50346371
   0.26307106  0.58317304  0.50262433
   0.41693406  0.73719327  0.50467262
   0.26291205  0.41722263  0.50232888
   0.41787774  0.26290472  0.50349417
   0.73728625  0.41724906  0.50338235
   0.58309240  0.26306413  0.50278995
   0.68608975  0.49903324  0.62857791
   0.31386514  0.50037703  0.62768519
   0.50049578  0.68601675  0.62744950
   0.49911941  0.31410480  0.62763707
   0.66311419  0.66251473  0.61393095
   0.33662366  0.66233791  0.61499444
   0.33653689  0.33601480  0.61391721
   0.66227224  0.33640833  0.61445707
   0.68664337  0.50017643  0.37421032
   0.31349055  0.50082583  0.37422170
   0.49941372  0.68739856  0.37458360
   0.50110522  0.31254240  0.37466420
   0.65480611  0.65606401  0.37536156
   0.34320532  0.65695167  0.37624281
   0.34462996  0.34364975  0.37387486
   0.65673926  0.34349364  0.37509306
   0.58335583  0.58288937  0.71905112
   0.41724833  0.58244896  0.71997842
   0.41637072  0.41686515  0.71914614
   0.58137958  0.41751186  0.72064383
   0.58487956  0.58579748  0.27934346
   0.41549888  0.58501632  0.27919702
   0.41368054  0.41401573  0.27983729
   0.58572939  0.41499698  0.27966647
   0.50053796  0.50011598  0.61478555
   0.41850688  0.41876292  0.50014681
   0.41923192  0.58118694  0.50062495
   0.49950160  0.49982544  0.38298840
   0.58149576  0.58077274  0.49970374
   0.58137598  0.41903312  0.49959603
   0.49804392  0.49885016  0.77454067
Direct configuration=    18
   0.73769408  0.58060575  0.50447999
   0.58113448  0.73763221  0.50302826
   0.26280663  0.58267075  0.50227313
   0.41735621  0.73739368  0.50414357
   0.26260221  0.41764596  0.50196955
   0.41820508  0.26264575  0.50288845
   0.73750121  0.41765091  0.50297474
   0.58270176  0.26285436  0.50229565
   0.68599606  0.49910977  0.62895497
   0.31392833  0.50015618  0.62814987
   0.50042593  0.68586904  0.62800898
   0.49919516  0.31415779  0.62807911
   0.66295042  0.66224358  0.61372695
   0.33695975  0.66204058  0.61467262
   0.33666346  0.33638224  0.61361521
   0.66192078  0.33677234  0.61427830
   0.68634371  0.50011087  0.37331026
   0.31377219  0.50068748  0.37336336
   0.49943861  0.68694091  0.37356521
   0.50088713  0.31298168  0.37365457
   0.65523281  0.65649208  0.37670030
   0.34293915  0.65722126  0.37747338
   0.34417313  0.34327739  0.37540633
   0.65710605  0.34329480  0.37648336
   0.58306523  0.58271592  0.71979609
   0.41758471  0.58230646  0.72052628
   0.41657096  0.41701231  0.71970797
   0.58137099  0.41794221  0.72117900
   0.58443379  0.58495560  0.27861829
   0.41606032  0.58461451  0.27850426
   0.41441617  0.41475556  0.27906381
   0.58509599  0.41547396  0.27889439
   0.50036682  0.50001068  0.61398478
   0.41887516  0.41906086  0.50037818
   0.41950338  0.58082050  0.50073546
   0.49961694  0.49987725  0.38397242
   0.58108075  0.58051889  0.49998678
   0.58095145  0.41934799  0.49982482
   0.49807300  0.49874995  0.77533137
Direct configuration=    19
   0.73765666  0.58105215  0.50497029
   0.58171832  0.73761599  0.50333026
   0.26290094  0.58343163  0.50248905
   0.41665346  0.73737512  0.50450874
   0.26277040  0.41699015  0.50222078
   0.41755244  0.26271645  0.50330852
   0.73749597  0.41691555  0.50319269
   0.58342101  0.26285889  0.50267338
   0.68639578  0.49905813  0.62893912
   0.31354180  0.50019592  0.62795703
   0.50043425  0.68628052  0.62790284
   0.49924603  0.31378849  0.62801271
   0.66312231  0.66246640  0.61404469
   0.33662765  0.66238977  0.61512808
   0.33647602  0.33612833  0.61403455
   0.66217049  0.33645443  0.61458551
   0.68701374  0.50010921  0.37396921
   0.31313701  0.50079355  0.37394388
   0.49933039  0.68768751  0.37422038
   0.50098736  0.31227396  0.37435551
   0.65510230  0.65640984  0.37569362
   0.34295241  0.65725289  0.37654116
   0.34437950  0.34331839  0.37426932
   0.65713299  0.34324720  0.37546308
   0.58335841  0.58296432  0.71943173
   0.41723721  0.58255764  0.72024901
   0.41624557  0.41673730  0.71941083
   0.58153905  0.41747429  0.72093826
   0.58469493  0.58553118  0.27885513
   0.41570010  0.58485011  0.27876162
   0.41391601  0.41427949  0.27938426
   0.58541009  0.41521349  0.27917588
   0.50049873  0.50010118  0.61381054
   0.41901225  0.41926491  0.50031810
   0.41970791  0.58075116  0.50072286
   0.49952207  0.49979545  0.38358370
   0.58102043  0.58032843  0.49976727
   0.58084326  0.41948965  0.49970321
   0.49807474  0.49885091  0.77413317
Direct configuration=    20
   0.73761242  0.58157987  0.50554990
   0.58240849  0.73759682  0.50368727
   0.26301243  0.58433111  0.50274430
   0.41582272  0.73735318  0.50494043
   0.26296922  0.41621489  0.50251778
   0.41678093  0.26280002  0.50380510
   0.73748977  0.41604625  0.50345034
   0.58427126  0.26286425  0.50311991
   0.68686830  0.49899708  0.62892038
   0.31308487  0.50024290  0.62772907
   0.50044410  0.68676695  0.62777737
   0.49930616  0.31335192  0.62793423
   0.66332551  0.66272981  0.61442029
   0.33623506  0.66280257  0.61566649
   0.33625445  0.33582818  0.61453028
   0.66246568  0.33607862  0.61494868
   0.68780580  0.50010726  0.37474818
   0.31238613  0.50091893  0.37463013
   0.49920245  0.68857010  0.37499489
   0.50110586  0.31143732  0.37518412
   0.65494803  0.65631263  0.37450358
   0.34296809  0.65729028  0.37543916
   0.34462345  0.34336686  0.37292522
   0.65716484  0.34319092  0.37425695
   0.58370500  0.58325797  0.71900101
   0.41682642  0.58285457  0.71992123
   0.41586092  0.41641220  0.71905958
   0.58173772  0.41692115  0.72065367