  39  39   0   0
  0.1495385E+03  0.1800000E-08  0.1800000E-08  0.1800000E-08  0.1000000E-15
  1.000000000000000E-004
  CAR 
 Pt cube particle                        
      1.97413371    -24.59997242  301     -4.19810566      1.00000000
    -24.600  0.0000E+00  0.0000E+00
    -24.511  0.0000E+00  0.0000E+00
    -24.423  0.0000E+00  0.0000E+00
    -24.334  0.0000E+00  0.0000E+00
    -24.246 -0.1032E-29 -0.9145E-31
    -24.157 -0.1174E-26 -0.1041E-27
    -24.068 -0.8994E-24 -0.7977E-25
    -23.980 -0.4636E-21 -0.4115E-22
    -23.891 -0.1607E-18 -0.1428E-19
    -23.803 -0.3744E-16 -0.3330E-17
    -23.714 -0.5667E-14 -0.5053E-15
    -23.626 -0.5910E-12 -0.5286E-13
    -23.537 -0.4117E-10 -0.3700E-11
    -23.448 -0.1910E-08 -0.1729E-09
    -23.360 -0.5879E-07 -0.5380E-08
    -23.271 -0.1191E-05 -0.1109E-06
    -23.183 -0.1570E-04 -0.1502E-05
    -23.094 -0.1319E-03 -0.1319E-04
    -23.006 -0.6753E-03 -0.7301E-04
    -22.917 -0.1859E-02 -0.2377E-03
    -22.828 -0.1187E-02 -0.3428E-03
    -22.740  0.8437E-02  0.4045E-03
    -22.651  0.2827E-01  0.2909E-02
    -22.563  0.4111E-01  0.6550E-02
    -22.474  0.3137E-01  0.9329E-02
    -22.385  0.1109E-01  0.1031E-01
    -22.297 -0.4688E-03  0.1027E-01
    -22.208 -0.2013E-02  0.1009E-01
    -22.120 -0.8292E-03  0.1002E-01
    -22.031 -0.1764E-03  0.1000E-01
    -21.943 -0.2260E-04  0.1000E-01
    -21.854 -0.1836E-05  0.1000E-01
    -21.765 -0.9687E-07  0.1000E-01
    -21.677 -0.3359E-08  0.1000E-01
    -21.588 -0.7718E-10  0.1000E-01
    -21.500 -0.1180E-11  0.1000E-01
    -21.411 -0.1208E-13  0.1000E-01
    -21.322 -0.7520E-16  0.1000E-01
    -21.234  0.0000E+00  0.1000E-01
    -21.145  0.0000E+00  0.1000E-01
    -21.057  0.0000E+00  0.1000E-01
    -20.968  0.0000E+00  0.1000E-01
    -20.880  0.0000E+00  0.1000E-01
    -20.791  0.0000E+00  0.1000E-01
    -20.702  0.0000E+00  0.1000E-01
    -20.614  0.0000E+00  0.1000E-01
    -20.525  0.0000E+00  0.1000E-01
    -20.437  0.0000E+00  0.1000E-01
    -20.348  0.0000E+00  0.1000E-01
    -20.260  0.0000E+00  0.1000E-01
    -20.171  0.0000E+00  0.1000E-01
    -20.082  0.0000E+00  0.1000E-01
    -19.994  0.0000E+00  0.1000E-01
    -19.905  0.0000E+00  0.1000E-01
    -19.817  0.0000E+00  0.1000E-01
    -19.728  0.0000E+00  0.1000E-01
    -19.639  0.0000E+00  0.1000E-01
    -19.551  0.0000E+00  0.1000E-01
    -19.462  0.0000E+00  0.1000E-01
    -19.374  0.0000E+00  0.1000E-01
    -19.285  0.0000E+00  0.1000E-01
    -19.197  0.0000E+00  0.1000E-01
    -19.108  0.0000E+00  0.1000E-01
    -19.019  0.0000E+00  0.1000E-01
    -18.931  0.0000E+00  0.1000E-01
    -18.842  0.0000E+00  0.1000E-01
    -18.754  0.0000E+00  0.1000E-01
    -18.665  0.0000E+00  0.1000E-01
    -18.577  0.0000E+00  0.1000E-01
    -18.488  0.0000E+00  0.1000E-01
    -18.399  0.0000E+00  0.1000E-01
    -18.311  0.0000E+00  0.1000E-01
    -18.222  0.0000E+00  0.1000E-01
    -18.134  0.0000E+00  0.1000E-01
    -18.045  0.0000E+00  0.1000E-01
    -17.956  0.0000E+00  0.1000E-01
    -17.868  0.0000E+00  0.1000E-01
    -17.779  0.0000E+00  0.1000E-01
    -17.691  0.0000E+00  0.1000E-01
    -17.602  0.0000E+00  0.1000E-01
    -17.514  0.0000E+00  0.1000E-01
    -17.425  0.0000E+00  0.1000E-01
    -17.336  0.0000E+00  0.1000E-01
    -17.248  0.0000E+00  0.1000E-01
    -17.159  0.0000E+00  0.1000E-01
    -17.071  0.0000E+00  0.1000E-01
    -16.982  0.0000E+00  0.1000E-01
    -16.893  0.0000E+00  0.1000E-01
    -16.805  0.0000E+00  0.1000E-01
    -16.716  0.0000E+00  0.1000E-01
    -16.628  0.0000E+00  0.1000E-01
    -16.539  0.0000E+00  0.1000E-01
    -16.451  0.0000E+00  0.1000E-01
    -16.362  0.0000E+00  0.1000E-01
    -16.273  0.0000E+00  0.1000E-01
    -16.185  0.0000E+00  0.1000E-01
    -16.096  0.0000E+00  0.1000E-01
    -16.008  0.0000E+00  0.1000E-01
    -15.919  0.0000E+00  0.1000E-01
    -15.831  0.0000E+00  0.1000E-01
    -15.742  0.0000E+00  0.1000E-01
    -15.653  0.0000E+00  0.1000E-01
    -15.565  0.0000E+00  0.1000E-01
    -15.476  0.0000E+00  0.1000E-01
    -15.388  0.0000E+00  0.1000E-01
    -15.299  0.0000E+00  0.1000E-01
    -15.210  0.0000E+00  0.1000E-01
    -15.122  0.0000E+00  0.1000E-01
    -15.033  0.0000E+00  0.1000E-01
    -14.945  0.0000E+00  0.1000E-01
    -14.856  0.0000E+00  0.1000E-01
    -14.768  0.0000E+00  0.1000E-01
    -14.679  0.0000E+00  0.1000E-01
    -14.590  0.0000E+00  0.1000E-01
    -14.502  0.0000E+00  0.1000E-01
    -14.413  0.0000E+00  0.1000E-01
    -14.325  0.0000E+00  0.1000E-01
    -14.236 -0.3700E-31  0.1000E-01
    -14.147 -0.5037E-28  0.1000E-01
    -14.059 -0.4619E-25  0.1000E-01
    -13.970 -0.2851E-22  0.1000E-01
    -13.882 -0.1184E-19  0.1000E-01
    -13.793 -0.3303E-17  0.1000E-01
    -13.705 -0.6005E-15  0.1000E-01
    -13.616 -0.7518E-13  0.1000E-01
    -13.527 -0.6293E-11  0.1000E-01
    -13.439 -0.3514E-09  0.1000E-01
    -13.350 -0.1304E-07  0.1000E-01
    -13.262 -0.3198E-06  0.1000E-01
    -13.173 -0.5135E-05  0.1000E-01
    -13.085 -0.5314E-04  0.9995E-02
    -12.996 -0.3435E-03  0.9964E-02
    -12.907 -0.1288E-02  0.9850E-02
    -12.819 -0.2106E-02  0.9664E-02
    -12.730  0.2503E-02  0.9885E-02
    -12.642  0.1870E-01  0.1154E-01
    -12.553  0.3765E-01  0.1488E-01
    -12.464  0.3845E-01  0.1828E-01
    -12.376  0.2008E-01  0.2006E-01
    -12.287  0.3191E-02  0.2034E-01
    -12.199 -0.2059E-02  0.2016E-01
    -12.110 -0.1373E-02  0.2004E-01
    -12.022 -0.3814E-03  0.2001E-01
    -11.933 -0.6098E-04  0.2000E-01
    -11.844 -0.6617E-05  0.2000E-01
    -11.756 -0.9801E-05  0.2000E-01
    -11.667 -0.1049E-03  0.1999E-01
    -11.579 -0.7378E-03  0.1992E-01
    -11.490 -0.3083E-02  0.1965E-01
    -11.401 -0.6239E-02  0.1910E-01
    -11.313  0.2266E-02  0.1930E-01
    -11.224  0.4301E-01  0.2311E-01
    -11.136  0.1019E+00  0.3213E-01
    -11.047  0.1182E+00  0.4260E-01
    -10.959  0.7329E-01  0.4910E-01
    -10.870  0.2801E-01  0.5158E-01
    -10.781  0.2298E-01  0.5361E-01
    -10.693  0.3160E-01  0.5641E-01
    -10.604  0.3296E-01  0.5933E-01
    -10.516  0.4478E-01  0.6330E-01
    -10.427  0.7256E-01  0.6973E-01
    -10.339  0.1149E+00  0.7990E-01
    -10.250  0.1907E+00  0.9680E-01
    -10.161  0.2621E+00  0.1200E+00
    -10.073  0.2467E+00  0.1419E+00
     -9.984  0.1665E+00  0.1566E+00
     -9.896  0.1217E+00  0.1674E+00
     -9.807  0.1469E+00  0.1804E+00
     -9.718  0.1858E+00  0.1969E+00
     -9.630  0.1676E+00  0.2117E+00
     -9.541  0.9884E-01  0.2205E+00
     -9.453  0.5127E-01  0.2250E+00
     -9.364  0.8464E-01  0.2325E+00
     -9.276  0.2266E+00  0.2526E+00
     -9.187  0.4205E+00  0.2898E+00
     -9.098  0.5151E+00  0.3355E+00
     -9.010  0.4484E+00  0.3752E+00
     -8.921  0.3271E+00  0.4042E+00
     -8.833  0.2426E+00  0.4257E+00
     -8.744  0.1898E+00  0.4425E+00
     -8.656  0.1633E+00  0.4569E+00
     -8.567  0.1808E+00  0.4729E+00
     -8.478  0.2256E+00  0.4929E+00
     -8.390  0.2308E+00  0.5134E+00
     -8.301  0.1846E+00  0.5297E+00
     -8.213  0.1806E+00  0.5457E+00
     -8.124  0.2736E+00  0.5700E+00
     -8.035  0.3930E+00  0.6048E+00
     -7.947  0.4378E+00  0.6435E+00
     -7.858  0.4090E+00  0.6798E+00
     -7.770  0.3814E+00  0.7136E+00
     -7.681  0.3484E+00  0.7444E+00
     -7.593  0.2608E+00  0.7675E+00
     -7.504  0.1588E+00  0.7816E+00
     -7.415  0.1105E+00  0.7914E+00
     -7.327  0.1419E+00  0.8040E+00
     -7.238  0.2478E+00  0.8259E+00
     -7.150  0.3436E+00  0.8564E+00
     -7.061  0.3265E+00  0.8853E+00
     -6.972  0.2286E+00  0.9055E+00
     -6.884  0.1572E+00  0.9194E+00
     -6.795  0.1621E+00  0.9338E+00
     -6.707  0.2419E+00  0.9552E+00
     -6.618  0.3381E+00  0.9852E+00
     -6.530  0.3684E+00  0.1018E+01
     -6.441  0.3490E+00  0.1049E+01
     -6.352  0.3359E+00  0.1078E+01
     -6.264  0.3051E+00  0.1106E+01
     -6.175  0.2619E+00  0.1129E+01
     -6.087  0.2776E+00  0.1153E+01
     -5.998  0.3184E+00  0.1182E+01
     -5.910  0.2876E+00  0.1207E+01
     -5.821  0.2105E+00  0.1226E+01
     -5.732  0.1752E+00  0.1241E+01
     -5.644  0.2221E+00  0.1261E+01
     -5.555  0.3648E+00  0.1293E+01
     -5.467  0.5417E+00  0.1341E+01
     -5.378  0.5783E+00  0.1392E+01
     -5.289  0.4020E+00  0.1428E+01
     -5.201  0.1937E+00  0.1445E+01
     -5.112  0.1722E+00  0.1460E+01
     -5.024  0.3463E+00  0.1491E+01
     -4.935  0.5354E+00  0.1538E+01
     -4.847  0.6087E+00  0.1592E+01
     -4.758  0.6374E+00  0.1649E+01
     -4.669  0.7073E+00  0.1712E+01
     -4.581  0.7190E+00  0.1775E+01
     -4.492  0.5829E+00  0.1827E+01
     -4.404  0.4047E+00  0.1863E+01
     -4.315  0.3088E+00  0.1890E+01
     -4.226  0.3283E+00  0.1919E+01
     -4.138  0.4066E+00  0.1955E+01
     -4.049  0.3976E+00  0.1990E+01
     -3.961  0.2580E+00  0.2013E+01
     -3.872  0.1353E+00  0.2025E+01
     -3.784  0.1450E+00  0.2038E+01
     -3.695  0.2175E+00  0.2057E+01
     -3.606  0.2258E+00  0.2077E+01
     -3.518  0.1641E+00  0.2092E+01
     -3.429  0.1070E+00  0.2101E+01
     -3.341  0.7036E-01  0.2108E+01
     -3.252  0.3250E-01  0.2110E+01
     -3.164  0.3646E-02  0.2111E+01
     -3.075 -0.5053E-02  0.2110E+01
     -2.986 -0.4550E-02  0.2110E+01
     -2.898 -0.6010E-02  0.2109E+01
     -2.809 -0.6703E-02  0.2109E+01
     -2.721  0.1188E-01  0.2110E+01
     -2.632  0.6499E-01  0.2116E+01
     -2.543  0.1346E+00  0.2128E+01
     -2.455  0.1889E+00  0.2144E+01
     -2.366  0.2110E+00  0.2163E+01
     -2.278  0.1854E+00  0.2179E+01
     -2.189  0.1227E+00  0.2190E+01
     -2.101  0.7157E-01  0.2197E+01
     -2.012  0.6354E-01  0.2202E+01
     -1.923  0.8402E-01  0.2210E+01
     -1.835  0.9780E-01  0.2218E+01
     -1.746  0.9156E-01  0.2226E+01
     -1.658  0.7596E-01  0.2233E+01
     -1.569  0.5356E-01  0.2238E+01
     -1.481  0.2506E-01  0.2240E+01
     -1.392  0.2623E-02  0.2240E+01
     -1.303 -0.8380E-02  0.2240E+01
     -1.215 -0.1114E-01  0.2239E+01
     -1.126  0.9414E-02  0.2239E+01
     -1.038  0.7831E-01  0.2246E+01
     -0.949  0.1647E+00  0.2261E+01
     -0.860  0.1842E+00  0.2277E+01
     -0.772  0.1171E+00  0.2288E+01
     -0.683  0.3533E-01  0.2291E+01
     -0.595 -0.4310E-02  0.2290E+01
     -0.506 -0.5291E-03  0.2290E+01
     -0.418  0.3053E-01  0.2293E+01
     -0.329  0.6436E-01  0.2299E+01
     -0.240  0.7206E-01  0.2305E+01
     -0.152  0.5592E-01  0.2310E+01
     -0.063  0.4402E-01  0.2314E+01
      0.025  0.3921E-01  0.2317E+01
      0.114  0.2533E-01  0.2320E+01
      0.203  0.7311E-02  0.2320E+01
      0.291 -0.1423E-02  0.2320E+01
      0.380 -0.1889E-02  0.2320E+01
      0.468 -0.6779E-03  0.2320E+01
      0.557 -0.1321E-03  0.2320E+01
      0.645 -0.1571E-04  0.2320E+01
      0.734 -0.1191E-05  0.2320E+01
      0.823 -0.5879E-07  0.2320E+01
      0.911 -0.1910E-08  0.2320E+01
      1.000 -0.4117E-10  0.2320E+01
      1.088 -0.5910E-12  0.2320E+01
      1.177 -0.5690E-14  0.2320E+01
      1.265 -0.2507E-16  0.2320E+01
      1.354  0.0000E+00  0.2320E+01
      1.443  0.0000E+00  0.2320E+01
      1.531  0.0000E+00  0.2320E+01
      1.620  0.0000E+00  0.2320E+01
      1.708  0.0000E+00  0.2320E+01
      1.797  0.0000E+00  0.2320E+01
      1.886  0.0000E+00  0.2320E+01
      1.974  0.0000E+00  0.2320E+01
