   39   39  200    1
  0.1495385E+03  0.1800000E-08  0.1800000E-08  0.1800000E-08  0.1000000E-15
  1.000000000000000E-004
  CAR 
 Pt cube particle                        
    386      1    232
 
  0.0000000E+00  0.0000000E+00  0.0000000E+00  0.1000000E+01
    1      -22.599972   1.000000
    2      -12.550138   1.000000
    3      -11.123920   1.000000
    4      -11.123241   1.000000
    5      -11.093437   1.000000
    6      -10.742763   1.000000
    7      -10.448614   1.000000
    8      -10.439234   1.000000
    9      -10.264489   1.000000
   10      -10.208637   1.000000
   11      -10.192333   1.000000
   12      -10.167313   1.000000
   13      -10.154680   1.000000
   14      -10.152750   1.000000
   15      -10.128459   1.000000
   16       -9.960082   1.000000
   17       -9.942217   1.000000
   18       -9.785108   1.000000
   19       -9.762207   1.000000
   20       -9.716765   1.000000
   21       -9.710371   1.000000
   22       -9.654995   1.000000
   23       -9.475482   1.000000
   24       -9.344350   1.000000
   25       -9.236215   1.000000
   26       -9.229413   1.000000
   27       -9.226040   1.000000
   28       -9.202846   1.000000
   29       -9.174828   1.000000
   30       -9.174535   1.000000
   31       -9.161506   1.000000
   32       -9.130267   1.000000
   33       -9.127080   1.000000
   34       -9.114466   1.000000
   35       -9.112987   1.000000
   36       -9.108886   1.000000
   37       -9.047168   1.000000
   38       -9.044284   1.000000
   39       -8.977148   1.000000
   40       -8.916639   1.000000
   41       -8.911522   1.000000
   42       -8.884662   1.000000
   43       -8.851736   1.000000
   44       -8.808413   1.000000
   45       -8.696368   1.000000
   46       -8.678312   1.000000
   47       -8.629380   1.000000
   48       -8.502474   1.000000
   49       -8.470345   1.000000
   50       -8.466532   1.000000
   51       -8.442113   1.000000
   52       -8.420149   1.000000
   53       -8.406596   1.000000
   54       -8.228995   1.000000
   55       -8.205648   1.000000
   56       -8.156092   1.000000
   57       -8.155287   1.000000
   58       -8.063672   1.000000
   59       -8.062640   1.000000
   60       -8.048948   1.000000
   61       -8.013332   1.000000
   62       -8.007990   1.000000
   63       -7.996415   1.000000
   64       -7.986284   1.000000
   65       -7.982308   1.000000
   66       -7.973330   1.000000
   67       -7.896778   1.000000
   68       -7.864637   1.000000
   69       -7.818864   1.000000
   70       -7.815981   1.000000
   71       -7.768647   1.000000
   72       -7.758384   1.000000
   73       -7.710344   1.000000
   74       -7.705126   1.000000
   75       -7.693424   1.000000
   76       -7.676478   1.000000
   77       -7.674127   1.000000
   78       -7.534222   1.000000
   79       -7.448699   1.000000
   80       -7.435661   1.000000
   81       -7.252364   1.000000
   82       -7.244100   1.000000
   83       -7.242321   1.000000
   84       -7.169165   1.000000
   85       -7.163043   1.000000
   86       -7.154599   1.000000
   87       -7.151105   1.000000
   88       -7.147887   1.000000
   89       -7.082065   1.000000
   90       -7.078110   1.000000
   91       -6.919336   1.000000
   92       -6.918220   1.000000
   93       -6.902437   1.000000
   94       -6.756197   1.000000
   95       -6.725101   1.000000
   96       -6.671394   1.000000
   97       -6.657089   1.000000
   98       -6.631297   1.000000
   99       -6.618798   1.000000
  100       -6.616967   1.000000
  101       -6.570707   1.000000
  102       -6.556333   1.000000
  103       -6.555451   1.000000
  104       -6.502363   1.000000
  105       -6.392474   1.000000
  106       -6.386174   1.000000
  107       -6.376341   1.000000
  108       -6.375683   1.000000
  109       -6.354189   1.000000
  110       -6.300792   1.000000
  111       -6.291590   1.000000
  112       -6.282283   1.000000
  113       -6.202335   1.000000
  114       -6.072068   1.000000
  115       -6.069589   1.000000
  116       -6.055985   1.000000
  117       -6.050590   1.000000
  118       -6.048043   1.000000
  119       -5.992266   1.000000
  120       -5.991155   1.000000
  121       -5.959864   1.000000
  122       -5.891121   1.000000
  123       -5.783098   1.000000
  124       -5.769757   1.000000
  125       -5.762886   1.000000
  126       -5.620978   1.000000
  127       -5.612007   1.000000
  128       -5.611857   1.000000
  129       -5.597862   1.000000
  130       -5.495527   1.000000
  131       -5.478277   1.000000
  132       -5.467873   1.000000
  133       -5.463262   1.000000
  134       -5.453710   1.000000
  135       -5.450547   1.000000
  136       -5.445188   1.000000
  137       -5.437895   1.000000
  138       -5.421933   1.000000
  139       -5.417849   1.000000
  140       -5.413683   1.000000
  141       -5.400445   1.000000
  142       -5.397936   1.000000
  143       -5.315823   1.000000
  144       -5.307913   1.000000
  145       -5.219799   1.000000
  146       -5.077174   1.000000
  147       -5.043823   1.000000
  148       -5.019515   1.000000
  149       -5.014533   1.000000
  150       -5.004127   1.000000
  151       -4.980698   1.000000
  152       -4.977856   1.000000
  153       -4.965602   1.000000
  154       -4.953940   1.000001
  155       -4.953523   1.000001
  156       -4.943715   1.000001
  157       -4.875682   1.000009
  158       -4.873650   1.000010
  159       -4.868503   1.000011
  160       -4.850294   1.000020
  161       -4.834069   1.000033
  162       -4.832005   1.000035
  163       -4.817296   1.000054
  164       -4.799192   1.000091
  165       -4.741339   1.000418
  166       -4.727173   1.000590
  167       -4.715382   1.000780
  168       -4.665344   1.002333
  169       -4.665284   1.002335
  170       -4.663632   1.002415
  171       -4.652437   1.003020
  172       -4.645973   1.003424
  173       -4.644335   1.003533
  174       -4.639756   1.003854
  175       -4.635260   1.004192
  176       -4.633095   1.004364
  177       -4.619168   1.005606
  178       -4.610552   1.006505
  179       -4.595871   1.008287
  180       -4.591339   1.008905
  181       -4.554773   1.015080
  182       -4.553837   1.015265
  183       -4.522934   1.021953
  184       -4.432317   1.034980
  185       -4.430208   1.034765
  186       -4.421174   1.033328
  187       -4.386830   1.018244
  188       -4.373307   1.007019
  189       -4.357377   0.989109
  190       -4.353063   0.983312
  191       -4.194983   0.486790
  192       -4.170563   0.384672
  193       -4.167500   0.372162
  194       -4.165701   0.364860
  195       -4.162656   0.352581
  196       -4.155368   0.323661
  197       -4.119394   0.193819
  198       -4.109302   0.162179
  199       -4.104431   0.147764
  200       -4.056628   0.037574
  201       -4.019119  -0.010509
  202       -4.018702  -0.010877
  203       -3.802875  -0.008628
  204       -3.784684  -0.006398
  205       -3.693650  -0.001048
  206       -3.684250  -0.000845
  207       -3.680070  -0.000767
  208       -3.679939  -0.000764
  209       -3.603702  -0.000109
  210       -3.426515   0.000000
  211       -3.422200   0.000000
  212       -2.579639   0.000000
  213       -2.576661   0.000000
  214       -2.537156   0.000000
  215       -2.391622   0.000000
  216       -2.391129   0.000000
  217       -2.388447   0.000000
  218       -2.327773   0.000000
  219       -2.265960   0.000000
  220       -2.119180   0.000000
  221       -1.922658   0.000000
  222       -1.908965   0.000000
  223       -1.756497   0.000000
  224       -1.627887   0.000000
  225       -0.961251   0.000000
  226       -0.958489   0.000000
  227       -0.948244   0.000000
  228       -0.930669   0.000000
  229       -0.831950   0.000000
  230       -0.363801   0.000000
  231       -0.268672   0.000000
  232       -0.025866   0.000000
