 running on    8 total cores
 distrk:  each k-point on    8 cores,    1 groups
 distr:  one band on    4 cores,    2 groups
 using from now: INCAR     
 vasp.5.4.1 24Jun15 (build Jan 06 2016 13:19:48) gamma-only                     
  
 POSCAR found :  2 types and      39 ions
 scaLAPACK will be used
 LDA part: xc-table for Ceperly-Alder, standard interpolation
 POSCAR found :  2 types and      39 ions
 POSCAR, INCAR and KPOINTS ok, starting setup
 WARNING: small aliasing (wrap around) errors must be expected
 FFT: planning ...
 WAVECAR not read
 entering main loop
       N       E                     dE             d eps       ncg     rms          rms(c)
RMM:   1     0.481202941674E+04    0.48120E+04   -0.71147E+04   232   0.680E+02
RMM:   2     0.272434187447E+04   -0.20877E+04   -0.23269E+04   232   0.169E+02
RMM:   3     0.176793824804E+04   -0.95640E+03   -0.12545E+04   232   0.123E+02
RMM:   4     0.103324102557E+04   -0.73470E+03   -0.79432E+03   232   0.121E+02
RMM:   5     0.569789076525E+03   -0.46345E+03   -0.43054E+03   232   0.893E+01
RMM:   6     0.262283453524E+03   -0.30751E+03   -0.26436E+03   232   0.847E+01
RMM:   7     0.932262338915E+02   -0.16906E+03   -0.14675E+03   232   0.624E+01
RMM:   8    -0.277198543220E+02   -0.12095E+03   -0.94823E+02   232   0.673E+01
RMM:   9    -0.129447390136E+03   -0.10173E+03   -0.95083E+02   640   0.430E+01
RMM:  10    -0.171195480782E+03   -0.41748E+02   -0.40273E+02   727   0.147E+01
RMM:  11    -0.193478673371E+03   -0.22283E+02   -0.17823E+02   749   0.768E+00
RMM:  12    -0.200341285266E+03   -0.68626E+01   -0.61558E+01   752   0.402E+00    0.235E+01
RMM:  13    -0.191129906629E+03    0.92114E+01   -0.82848E+01   525   0.194E+01    0.134E+01
RMM:  14    -0.192891844256E+03   -0.17619E+01   -0.44072E+01   596   0.900E+00    0.817E+00
RMM:  15    -0.193147727539E+03   -0.25588E+00   -0.16337E+01   594   0.535E+00    0.593E+00
RMM:  16    -0.193159902207E+03   -0.12175E-01   -0.61318E+00   591   0.294E+00    0.384E+00
RMM:  17    -0.193300023099E+03   -0.14012E+00   -0.25038E+00   600   0.210E+00    0.312E+00
RMM:  18    -0.193360248205E+03   -0.60225E-01   -0.12599E+00   575   0.152E+00    0.238E+00
RMM:  19    -0.193429088719E+03   -0.68841E-01   -0.66294E-01   584   0.116E+00    0.239E+00
RMM:  20    -0.193379839908E+03    0.49249E-01   -0.39942E-01   556   0.838E-01    0.110E+00
RMM:  21    -0.193391479722E+03   -0.11640E-01   -0.21472E-01   552   0.546E-01    0.784E-01
RMM:  22    -0.193409859856E+03   -0.18380E-01   -0.13799E-01   590   0.288E-01    0.685E-01
RMM:  23    -0.193421002092E+03   -0.11142E-01   -0.75896E-02   548   0.218E-01    0.601E-01
RMM:  24    -0.193426939469E+03   -0.59374E-02   -0.44665E-02   541   0.165E-01    0.530E-01
RMM:  25    -0.193427126235E+03   -0.18677E-03   -0.20794E-02   511   0.138E-01    0.383E-01
RMM:  26    -0.193425162427E+03    0.19638E-02   -0.82242E-03   496   0.153E-01    0.369E-01
RMM:  27    -0.193420963744E+03    0.41987E-02   -0.39290E-03   484   0.137E-01    0.185E-01
RMM:  28    -0.193420547243E+03    0.41650E-03   -0.20253E-03   482   0.102E-01    0.150E-01
RMM:  29    -0.193420739310E+03   -0.19207E-03   -0.45909E-04   364   0.510E-02    0.714E-02
RMM:  30    -0.193421282554E+03   -0.54324E-03   -0.11507E-04   282   0.381E-02    0.540E-02
RMM:  31    -0.193422875551E+03   -0.15930E-02   -0.16572E-04   287   0.373E-02    0.363E-02
RMM:  32    -0.193424284403E+03   -0.14089E-02   -0.16869E-04   289   0.304E-02    0.275E-02
RMM:  33    -0.193425357037E+03   -0.10726E-02   -0.12929E-04   280   0.230E-02    0.224E-02
RMM:  34    -0.193426589169E+03   -0.12321E-02   -0.18497E-04   292   0.222E-02    0.171E-02
RMM:  35    -0.193427932199E+03   -0.13430E-02   -0.31736E-04   313   0.236E-02    0.185E-02
RMM:  36    -0.193428832899E+03   -0.90070E-03   -0.31542E-04   317   0.233E-02    0.150E-02
RMM:  37    -0.193429105592E+03   -0.27269E-03   -0.10552E-04   267   0.173E-02    0.862E-03
RMM:  38    -0.193429262930E+03   -0.15734E-03   -0.85571E-05   242   0.150E-02    0.541E-03
RMM:  39    -0.193429296195E+03   -0.33265E-04   -0.33305E-05   191   0.131E-02
   1 F= -.19342930E+03 E0= -.19338531E+03  d E =-.193429E+03
 curvature:   0.00 expect dE= 0.000E+00 dE for cont linesearch  0.000E+00
 trial: gam= 0.00000 g(F)=  0.200E-05 g(S)=  0.000E+00 ort = 0.000E+00 (trialstep = 0.100E+01)
 search vector abs. value=  0.200E-05
 reached required accuracy - stopping structural energy minimisation
