Pt cube particle                        
           1
    18.000000    0.000000    0.000000
     0.000000   18.000000    0.000000
     0.000000    0.000000   18.000000
   Pt   O 
  38   1
Direct configuration=     1
   0.72257430  0.57309990  0.50020326
   0.57310093  0.72257403  0.50020304
   0.27768266  0.57328361  0.50008765
   0.42649001  0.72224946  0.50032579
   0.27752107  0.42669729  0.49967158
   0.42669656  0.27752145  0.49967177
   0.72224904  0.42648933  0.50032604
   0.57328263  0.27768254  0.50008798
   0.66896875  0.49995173  0.61818177
   0.33052645  0.49955494  0.61777083
   0.49995230  0.66896893  0.61818181
   0.49955423  0.33052680  0.61777078
   0.64859535  0.64859483  0.60775332
   0.35179083  0.64787838  0.60867190
   0.35095914  0.35095981  0.60785692
   0.64787761  0.35179055  0.60867192
   0.66669582  0.49992260  0.38142030
   0.33324668  0.50023761  0.38106483
   0.49992331  0.66669587  0.38141995
   0.50023715  0.33324678  0.38106528
   0.64822278  0.64822213  0.39408735
   0.35147837  0.64865839  0.39385916
   0.35173155  0.35173198  0.39365192
   0.64865782  0.35147791  0.39385971
   0.57638974  0.57638949  0.70826448
   0.42473085  0.57491493  0.70837530
   0.42323825  0.42323859  0.70830097
   0.57491455  0.42473071  0.70837515
   0.57501197  0.57501134  0.28935832
   0.42501837  0.57524295  0.28921835
   0.42516456  0.42516441  0.28927688
   0.57524302  0.42501779  0.28921884
   0.49988834  0.49988836  0.60266917
   0.42580374  0.42580397  0.49972068
   0.42585642  0.57400848  0.49972903
   0.49998908  0.49998890  0.39412654
   0.57405800  0.57405761  0.49977677
   0.57400827  0.42585608  0.49972915
   0.49766952  0.49766954  0.77199549
