    2    2  200    1
  0.2332800E+05  0.3600000E-08  0.3600000E-08  0.3600000E-08  0.1000000E-15
  1.000000000000000E-004
  CAR 
 Pt cube particle                        
     12      1     10
