 running on    8 total cores
 distrk:  each k-point on    8 cores,    1 groups
 distr:  one band on    4 cores,    2 groups
 using from now: INCAR     
 vasp.5.4.1 24Jun15 (build Jan 06 2016 13:19:48) gamma-only                     
  
 POSCAR found :  1 types and       2 ions
 scaLAPACK will be used

 ----------------------------------------------------------------------------- 
|                                                                             |
|  ADVICE TO THIS USER RUNNING 'VASP/VAMP'   (HEAR YOUR MASTER'S VOICE ...):  |
|                                                                             |
|      You have a (more or less) 'small supercell' and for smaller cells      |
|      it is recommended  to use the reciprocal-space projection scheme!      |
|      The real space optimization is not  efficient for small cells and it   |
|      is also less accurate ...                                              |
|      Therefore set LREAL=.FALSE. in the  INCAR file                         |
|                                                                             |
 ----------------------------------------------------------------------------- 

 LDA part: xc-table for Ceperly-Alder, standard interpolation
 POSCAR found :  1 types and       2 ions
 POSCAR, INCAR and KPOINTS ok, starting setup
 WARNING: small aliasing (wrap around) errors must be expected
 FFT: planning ...
 WAVECAR not read
 entering main loop
       N       E                     dE             d eps       ncg     rms          rms(c)
RMM:   1     0.147875948463E+03    0.14788E+03   -0.15671E+03    14   0.373E+02
RMM:   2     0.120932962154E+03   -0.26943E+02   -0.31427E+02    14   0.849E+01
RMM:   3     0.103611651227E+03   -0.17321E+02   -0.19358E+02    14   0.256E+01
RMM:   4     0.979074466666E+02   -0.57042E+01   -0.89678E+01    14   0.269E+01
RMM:   5     0.934056634709E+02   -0.45018E+01   -0.39985E+01    14   0.195E+01
RMM:   6     0.877886242950E+02   -0.56170E+01   -0.54951E+01    14   0.255E+01
RMM:   7     0.869803986079E+02   -0.80823E+00    0.32229E+01    14   0.303E+01
RMM:   8     0.651792336056E+02   -0.21801E+02   -0.20194E+02    14   0.504E+01
RMM:   9     0.389635139444E+02   -0.26216E+02   -0.19526E+02    48   0.533E+01
RMM:  10     0.301506487015E+02   -0.88129E+01   -0.78125E+01    39   0.329E+01
RMM:  11     0.299627401969E+02   -0.18791E+00   -0.37925E-01    41   0.181E+01
RMM:  12     0.288655743875E+02   -0.10972E+01   -0.26450E+00    46   0.746E+00    0.209E+01
RMM:  13     0.550977588383E+02    0.26232E+02   -0.69875E+01    32   0.736E+01    0.105E+01
RMM:  14     0.610075464925E+02    0.59098E+01   -0.46123E-01    38   0.659E+01    0.494E+00
RMM:  15     0.670698318386E+02    0.60623E+01    0.45260E+01    47   0.393E+01    0.661E+00
RMM:  16     0.657567744928E+02   -0.13131E+01   -0.31649E+00    49   0.103E+01    0.102E+01
RMM:  17     0.659561222156E+02    0.19935E+00   -0.22237E-01    47   0.633E+00    0.102E+01
RMM:  18     0.667373044827E+02    0.78118E+00   -0.92094E-01    42   0.968E+00    0.946E+00
RMM:  19     0.673529585922E+02    0.61565E+00    0.20427E+00    48   0.670E+00    0.950E+00
RMM:  20     0.674518539259E+02    0.98895E-01    0.17604E+00    52   0.413E+00    0.985E+00
RMM:  21     0.679442197964E+02    0.49237E+00    0.30727E+00    52   0.348E+00    0.104E+01
RMM:  22     0.684065414965E+02    0.46232E+00    0.18594E+00    52   0.322E+00    0.106E+01
RMM:  23     0.686084156409E+02    0.20187E+00    0.10060E+00    52   0.275E+00    0.109E+01
RMM:  24     0.691198736362E+02    0.51146E+00    0.66045E-01    42   0.298E+00    0.109E+01
RMM:  25     0.701115654211E+02    0.99169E+00    0.49897E-03    43   0.533E+00    0.105E+01
RMM:  26     0.702554793524E+02    0.14391E+00    0.93816E-01    49   0.286E+00    0.109E+01
RMM:  27     0.711310559872E+02    0.87558E+00   -0.17552E-02    37   0.486E+00    0.104E+01
RMM:  28     0.712128788848E+02    0.81823E-01    0.83995E-01    50   0.297E+00    0.107E+01
RMM:  29     0.713065203215E+02    0.93641E-01    0.40084E-01    50   0.255E+00    0.106E+01
RMM:  30     0.702162471154E+02   -0.10903E+01    0.26255E-01    50   0.276E+00    0.108E+01
RMM:  31     0.714197923481E+02    0.12035E+01    0.49146E+01    49   0.203E+01    0.107E+01
RMM:  32     0.717980703698E+02    0.37828E+00    0.93415E-02    41   0.317E+00    0.112E+01
RMM:  33     0.719076614756E+02    0.10959E+00    0.36767E-01    48   0.280E+00    0.108E+01
RMM:  34     0.722508211863E+02    0.34316E+00    0.55277E+00    44   0.131E+01    0.754E+00
RMM:  35     0.727661919202E+02    0.51537E+00    0.40563E+00    49   0.860E+00    0.740E+00
RMM:  36     0.732666208499E+02    0.50043E+00    0.21565E+00    48   0.598E+00    0.700E+00
RMM:  37     0.735595968778E+02    0.29298E+00    0.10936E+00    49   0.361E+00    0.699E+00
RMM:  38     0.735794473629E+02    0.19850E-01    0.49198E-01    47   0.226E+00    0.719E+00
RMM:  39     0.738209541041E+02    0.24151E+00    0.70302E-01    46   0.312E+00    0.750E+00
RMM:  40     0.738601108962E+02    0.39157E-01    0.43274E-01    48   0.252E+00    0.782E+00
RMM:  41     0.738842822389E+02    0.24171E-01    0.14199E-01    45   0.152E+00    0.784E+00
RMM:  42     0.738833592868E+02   -0.92295E-03   -0.58618E-01    46   0.170E+00    0.775E+00
RMM:  43     0.733547606939E+02   -0.52860E+00    0.43739E-01    44   0.816E+00    0.879E+00
RMM:  44     0.625054380078E+02   -0.10849E+02    0.25739E+00    49   0.477E+00    0.902E+00
RMM:  45     0.425398924773E+02   -0.19966E+02   -0.18652E+02    45   0.260E+01    0.111E+01
RMM:  46     0.414334608769E+02   -0.11064E+01   -0.11540E+01    45   0.163E+01    0.115E+01
RMM:  47     0.408357860680E+02   -0.59767E+00   -0.62749E+00    49   0.422E+00    0.125E+01
RMM:  48     0.406476870166E+02   -0.18810E+00   -0.25439E+00    46   0.305E+00    0.128E+01
RMM:  49     0.406744031847E+02    0.26716E-01   -0.92042E-01    45   0.277E+00    0.129E+01
RMM:  50     0.405514841623E+02   -0.12292E+00   -0.79659E-03    48   0.254E+00    0.131E+01
RMM:  51     0.408411989164E+02    0.28971E+00    0.19738E+01    48   0.137E+01    0.130E+01
RMM:  52     0.410456055902E+02    0.20441E+00    0.23148E+00    44   0.276E+00    0.128E+01
RMM:  53     0.399548277884E+02   -0.10908E+01    0.23735E+00    47   0.283E+00    0.130E+01
RMM:  54     0.414115208208E+02    0.14567E+01    0.44317E+01    46   0.152E+01    0.126E+01
RMM:  55     0.415533736023E+02    0.14185E+00    0.11397E+00    46   0.262E+00    0.125E+01
RMM:  56     0.416189767198E+02    0.65603E-01    0.40821E-01    49   0.263E+00    0.124E+01
RMM:  57     0.416606725274E+02    0.41696E-01    0.13575E-01    44   0.237E+00    0.124E+01
RMM:  58     0.401249275149E+02   -0.15357E+01   -0.61849E+00    37   0.183E+01    0.142E+01
RMM:  59     0.410244121034E+02    0.89948E+00    0.29802E+00    45   0.948E+00    0.137E+01
RMM:  60     0.412369725899E+02    0.21256E+00    0.14480E+00    49   0.572E+00
   1 F= 0.41236973E+02 E0= 0.41240782E+02  d E =0.412370E+02
 curvature:   0.00 expect dE= 0.000E+00 dE for cont linesearch  0.000E+00
 trial: gam= 0.00000 g(F)=  0.755E-02 g(S)=  0.000E+00 ort = 0.000E+00 (trialstep = 0.100E+01)
 search vector abs. value=  0.755E-02
 bond charge predicted
       N       E                     dE             d eps       ncg     rms          rms(c)
RMM:   1     0.411739645278E+02    0.14955E+00   -0.10969E+00    50   0.832E+00    0.150E+01
RMM:   2     0.429843723726E+02    0.18104E+01   -0.50377E+00    38   0.216E+01    0.978E+00
RMM:   3     0.435061395116E+02    0.52177E+00    0.80065E+00    42   0.164E+01    0.629E+00
RMM:   4     0.432248910209E+02   -0.28125E+00   -0.35665E+00    48   0.265E+01    0.349E+00
RMM:   5     0.451358757183E+02    0.19110E+01    0.59190E+01    49   0.254E+01    0.369E+00
RMM:   6     0.453948818333E+02    0.25901E+00    0.24140E+00    48   0.703E+00    0.385E+00
RMM:   7     0.454669961155E+02    0.72114E-01    0.27376E-01    49   0.306E+00    0.399E+00
RMM:   8     0.454623665745E+02   -0.46295E-02    0.44184E-02    50   0.193E+00    0.443E+00
RMM:   9     0.454310946479E+02   -0.31272E-01    0.78703E-02    44   0.250E+00    0.419E+00
RMM:  10     0.453454291277E+02   -0.85666E-01    0.19218E-01    44   0.520E+00    0.542E+00
RMM:  11     0.453487952918E+02    0.33662E-02    0.41012E-01    50   0.213E+00    0.608E+00
RMM:  12     0.454522601091E+02    0.10346E+00    0.17251E-02    44   0.134E+00    0.615E+00
RMM:  13     0.455614162036E+02    0.10916E+00    0.59571E-01    46   0.499E+00    0.505E+00
RMM:  14     0.456477500239E+02    0.86334E-01    0.32804E+01    48   0.313E+01    0.362E+00
RMM:  15     0.445011724883E+02   -0.11466E+01    0.78300E+00    49   0.146E+01    0.464E+00
RMM:  16     0.452922050091E+02    0.79103E+00    0.95959E+00    48   0.103E+01    0.454E+00
RMM:  17     0.452579942122E+02   -0.34211E-01   -0.19825E-03    48   0.238E+00    0.455E+00
RMM:  18     0.444658897416E+02   -0.79210E+00    0.38081E-01    42   0.517E+00    0.634E+00
RMM:  19     0.454185191192E+02    0.95263E+00    0.63246E-02    41   0.424E+00    0.424E+00
RMM:  20     0.445958415706E+02   -0.82268E+00    0.98988E-01    45   0.756E+00    0.678E+00
RMM:  21     0.431304082174E+02   -0.14654E+01    0.13418E+00    44   0.110E+01    0.104E+01
RMM:  22     0.424321647421E+02   -0.69824E+00    0.59487E-01    49   0.567E+00    0.121E+01
RMM:  23     0.426594376981E+02    0.22727E+00   -0.27816E-02    42   0.238E+00    0.117E+01
RMM:  24     0.410045071868E+02   -0.16549E+01   -0.13497E-01    40   0.621E+00    0.144E+01
RMM:  25     0.394162446050E+02   -0.15883E+01    0.16253E-02    44   0.565E+00    0.136E+01
RMM:  26     0.419854899795E+02    0.25692E+01    0.57723E+01    41   0.247E+01    0.116E+01
RMM:  27     0.263395362979E+02   -0.15646E+02    0.71406E-01    43   0.460E+00    0.136E+01
RMM:  28     0.139719342571E+02   -0.12368E+02   -0.12121E+02    47   0.189E+01    0.156E+01
RMM:  29     0.119452589896E+01   -0.12777E+02   -0.78735E+00    40   0.112E+01    0.182E+01
RMM:  30    -0.137400154539E+02   -0.14935E+02   -0.13333E+02    42   0.203E+01    0.210E+01
RMM:  31    -0.144492800490E+02   -0.70926E+00   -0.10911E+01    36   0.132E+01    0.215E+01
RMM:  32    -0.139960926680E+02    0.45319E+00    0.63241E+00    38   0.389E+00    0.217E+01
RMM:  33    -0.134759828977E+02    0.52011E+00   -0.18697E-01    37   0.241E+00    0.212E+01
RMM:  34    -0.137738968346E+02   -0.29791E+00   -0.45450E-02    40   0.147E+00    0.215E+01
RMM:  35    -0.230491571184E+02   -0.92753E+01   -0.82687E-02    41   0.841E-01    0.253E+01
RMM:  36    -0.314434359823E+02   -0.83943E+01   -0.84286E+01    44   0.167E+01    0.266E+01
RMM:  37    -0.317644285497E+02   -0.32099E+00   -0.39450E+00    36   0.862E+00    0.265E+01
RMM:  38    -0.309008649394E+02    0.86356E+00    0.11457E+01    42   0.312E+00    0.270E+01
RMM:  39    -0.307088978426E+02    0.19197E+00   -0.54742E-02    29   0.201E+00    0.270E+01
RMM:  40    -0.306725391387E+02    0.36359E-01    0.29577E-02    41   0.467E-01    0.269E+01
RMM:  41    -0.306678745563E+02    0.46646E-02   -0.31792E-03    30   0.242E-01    0.269E+01
RMM:  42    -0.310233583442E+02   -0.35548E+00   -0.71798E-03    36   0.953E-01    0.272E+01
RMM:  43    -0.310593324706E+02   -0.35974E-01   -0.62982E-03    35   0.718E-01    0.272E+01
RMM:  44    -0.478954338860E+02   -0.16836E+02   -0.12012E-01    36   0.505E+00    0.343E+01
RMM:  45    -0.507033365841E+02   -0.28079E+01   -0.26725E+01    28   0.167E+01    0.348E+01
RMM:  46    -0.507231424664E+02   -0.19806E-01   -0.68102E-01    28   0.451E+00    0.347E+01
RMM:  47    -0.550449707862E+02   -0.43218E+01   -0.47970E-01    28   0.711E+00    0.374E+01
RMM:  48    -0.530846571833E+02    0.19603E+01   -0.69440E-02    28   0.273E+00    0.361E+01
RMM:  49    -0.511862871691E+02    0.18984E+01   -0.11570E-01    28   0.353E+00    0.350E+01
RMM:  50    -0.476797760459E+02    0.35065E+01   -0.30111E-01    28   0.546E+00    0.331E+01
RMM:  51    -0.458720399087E+02    0.18077E+01   -0.14344E-01    28   0.355E+00    0.321E+01
RMM:  52    -0.375428546680E+02    0.83292E+01   -0.35396E+00    28   0.168E+01    0.282E+01
RMM:  53    -0.375675702332E+02   -0.24716E-01   -0.10263E-01    28   0.305E+00    0.282E+01
RMM:  54    -0.375755185930E+02   -0.79484E-02   -0.12632E-02    31   0.735E-01    0.282E+01
RMM:  55    -0.375215938705E+02    0.53925E-01   -0.27886E-03    28   0.419E-01    0.282E+01
RMM:  56    -0.376174634023E+02   -0.95870E-01   -0.25775E-02    28   0.120E+00    0.282E+01
RMM:  57    -0.399297104221E+02   -0.23122E+01   -0.71745E-01    28   0.694E+00    0.292E+01
RMM:  58    -0.394685828752E+02    0.46113E+00   -0.10652E-01    28   0.279E+00    0.290E+01
RMM:  59    -0.412644169143E+02   -0.17958E+01   -0.22215E-01    28   0.407E+00    0.296E+01
RMM:  60    -0.428286538325E+02   -0.15642E+01   -0.13149E-01    28   0.347E+00
   2 F= -.42828654E+02 E0= -.42832519E+02  d E =-.840656E+02
 trial-energy change:  -84.065626  1 .order   -0.000076   -0.007547    0.007396
 step:   1.0000(harm=  0.5051)  dis= 0.00514  next Energy=   -42.828654 (dE=-0.841E+02)
 bond charge predicted
       N       E                     dE             d eps       ncg     rms          rms(c)
RMM:   1    -0.436909430252E+02   -0.24265E+01   -0.79520E-02    28   0.286E+00    0.307E+01
RMM:   2    -0.963900230980E+01    0.34052E+02   -0.59909E+01    28   0.876E+01    0.149E+01
RMM:   3    -0.147647690846E+02   -0.51258E+01   -0.26159E+01    28   0.311E+01    0.188E+01
RMM:   4    -0.350824357441E+01    0.11257E+02   -0.45316E+00    28   0.209E+01    0.884E+00
RMM:   5    -0.341857340052E+01    0.89670E-01   -0.41247E+00    29   0.140E+01    0.828E+00
RMM:   6    -0.180907665594E+01    0.16095E+01   -0.39578E-01    28   0.606E+00    0.349E+00
RMM:   7    -0.176504082241E+01    0.44036E-01   -0.29975E-01    35   0.303E+00    0.698E+00
RMM:   8    -0.171389782900E+01    0.51143E-01   -0.22372E-01    28   0.429E+00    0.449E+00
RMM:   9    -0.156659087702E+01    0.14731E+00   -0.95112E-02    28   0.406E+00    0.368E+00
RMM:  10    -0.177140934405E+01   -0.20482E+00   -0.26132E-01    28   0.359E+00    0.698E+00
RMM:  11    -0.146669288513E+01    0.30472E+00   -0.32296E-02    28   0.155E+00    0.435E+00
RMM:  12    -0.139970814561E+01    0.66985E-01   -0.17908E-02    28   0.138E+00    0.213E+00
RMM:  13    -0.156355652816E+01   -0.16385E+00   -0.49790E-02    28   0.176E+00    0.611E+00
RMM:  14    -0.169959335789E+01   -0.13604E+00   -0.25727E-02    31   0.119E+00    0.599E+00
RMM:  15    -0.142711188199E+01    0.27248E+00   -0.34453E-02    28   0.169E+00    0.453E+00
RMM:  16    -0.158075911547E+01   -0.15365E+00   -0.61271E-02    28   0.209E+00    0.700E+00
RMM:  17    -0.140839574152E+01    0.17236E+00   -0.99945E-03    28   0.102E+00    0.463E+00
RMM:  18    -0.140634803229E+01    0.20477E-02   -0.27590E-03    27   0.550E-01    0.474E+00
RMM:  19    -0.138970647546E+01    0.16642E-01   -0.23736E-03    28   0.496E-01    0.420E+00
RMM:  20    -0.138152158399E+01    0.81849E-02   -0.12141E-02    28   0.908E-01    0.395E+00
RMM:  21    -0.139530800721E+01   -0.13786E-01   -0.25816E-02    28   0.142E+00    0.431E+00
RMM:  22    -0.138013661344E+01    0.15171E-01   -0.45518E-03    29   0.686E-01    0.379E+00
RMM:  23    -0.135607923413E+01    0.24057E-01   -0.22908E-03    28   0.493E-01    0.202E+00
RMM:  24    -0.135095304251E+01    0.51262E-02   -0.44335E-03    28   0.557E-01    0.623E-01
RMM:  25    -0.135802072918E+01   -0.70677E-02   -0.96823E-03    28   0.832E-01    0.180E+00
RMM:  26    -0.135610601604E+01    0.19147E-02   -0.17734E-03    28   0.375E-01    0.102E+00
RMM:  27    -0.135904205656E+01   -0.29360E-02   -0.17157E-03    28   0.370E-01    0.812E-01
RMM:  28    -0.136038788620E+01   -0.13458E-02   -0.11854E-03    28   0.327E-01    0.223E-01
RMM:  29    -0.136329980247E+01   -0.29119E-02   -0.78681E-04    27   0.247E-01    0.636E-01
RMM:  30    -0.136551300549E+01   -0.22132E-02   -0.83542E-04    22   0.207E-01    0.181E-01
RMM:  31    -0.136703335778E+01   -0.15204E-02   -0.51821E-04    20   0.155E-01    0.155E-01
RMM:  32    -0.136772727043E+01   -0.69391E-03   -0.17397E-04    18   0.932E-02    0.262E-01
RMM:  33    -0.136829863546E+01   -0.57137E-03   -0.18643E-04    18   0.109E-01    0.164E-01
RMM:  34    -0.136868587658E+01   -0.38724E-03   -0.12367E-04    18   0.924E-02    0.132E-01
RMM:  35    -0.136886101217E+01   -0.17514E-03   -0.55139E-05    16   0.866E-02    0.183E-01
RMM:  36    -0.136911269977E+01   -0.25169E-03   -0.83889E-05    17   0.768E-02    0.124E-01
RMM:  37    -0.136918622511E+01   -0.73525E-04   -0.46570E-05    16   0.713E-02
   3 F= -.13691862E+01 E0= -.13320203E+01  d E =-.426062E+02
 curvature:   0.00 expect dE=-0.442E-06 dE for cont linesearch -0.417E-06
 ZBRENT: interpolating
 opt :   1.0000  next Energy=   -42.828654 (dE=-0.841E+02)
 bond charge predicted
       N       E                     dE             d eps       ncg     rms          rms(c)
RMM:   1    -0.136920598276E+01   -0.93283E-04   -0.17906E-05    15   0.460E-02    0.105E-01
RMM:   2    -0.136929781878E+01   -0.91836E-04   -0.84125E-05    16   0.971E-02
   4 F= -.13692978E+01 E0= -.13320646E+01  d E =-.426063E+02
 curvature:   0.00 expect dE=-0.192E-07 dE for cont linesearch -0.181E-07
 ZBRENT: interpolating
 opt :   1.0000  next Energy=   -42.828654 (dE=-0.841E+02)
 bond charge predicted
       N       E                     dE             d eps       ncg     rms          rms(c)
RMM:   1    -0.137156109353E+01   -0.23551E-02   -0.21629E-04    18   0.155E-01    0.106E+00
RMM:   2    -0.234507987057E+01   -0.97352E+00   -0.28235E-01    28   0.490E+00    0.665E+00
RMM:   3    -0.140937016915E+01    0.93571E+00   -0.10297E-01    28   0.338E+00    0.398E+00
RMM:   4    -0.137032241369E+01    0.39048E-01   -0.23190E-02    32   0.105E+00    0.816E-01
RMM:   5    -0.137022462602E+01    0.97788E-04   -0.24699E-03    28   0.499E-01    0.588E-01
RMM:   6    -0.136942419252E+01    0.80043E-03   -0.75722E-04    26   0.206E-01    0.807E-02
RMM:   7    -0.136923859067E+01    0.18560E-03   -0.29296E-04    19   0.182E-01    0.194E-01
RMM:   8    -0.136920424790E+01    0.34343E-04   -0.81895E-05    16   0.117E-01
   5 F= -.13692042E+01 E0= -.13319340E+01  d E =-.426062E+02
 curvature:   0.00 expect dE=-0.664E-08 dE for cont linesearch -0.626E-08
 ZBRENT: interpolating
 opt :   1.0000  next Energy=   -42.828654 (dE=-0.841E+02)
 bond charge predicted
       N       E                     dE             d eps       ncg     rms          rms(c)
RMM:   1    -0.136917272388E+01    0.65867E-04   -0.48953E-05    16   0.651E-02    0.117E-01
RMM:   2    -0.140692679340E+01   -0.37754E-01   -0.32756E-03    28   0.517E-01    0.391E+00
RMM:   3    -0.136974602658E+01    0.37181E-01   -0.31131E-03    28   0.540E-01    0.205E-01
RMM:   4    -0.136964628386E+01    0.99743E-04   -0.14295E-03    26   0.398E-01    0.935E-02
RMM:   5    -0.136935459042E+01    0.29169E-03   -0.27892E-04    19   0.206E-01    0.355E-02
RMM:   6    -0.136916849671E+01    0.18609E-03   -0.12833E-04    18   0.136E-01    0.287E-02
RMM:   7    -0.136918611723E+01   -0.17621E-04   -0.23337E-05    16   0.633E-02
   6 F= -.13691861E+01 E0= -.13319714E+01  d E =-.426062E+02
 curvature:   0.00 expect dE=-0.223E-08 dE for cont linesearch -0.210E-08
 ZBRENT: interpolating
 opt :   1.0000  next Energy=   -42.828654 (dE=-0.841E+02)
 bond charge predicted
       N       E                     dE             d eps       ncg     rms          rms(c)
RMM:   1    -0.136915627296E+01    0.12224E-04   -0.10133E-05    14   0.371E-02    0.158E-02
RMM:   2    -0.136922850322E+01   -0.72230E-04   -0.63251E-06    12   0.327E-02
   7 F= -.13692285E+01 E0= -.13320371E+01  d E =-.426062E+02
 curvature:   0.00 expect dE=-0.753E-09 dE for cont linesearch -0.710E-09
 ZBRENT: interpolating
 opt :   1.0000  next Energy=   -42.828654 (dE=-0.841E+02)
 bond charge predicted
       N       E                     dE             d eps       ncg     rms          rms(c)
RMM:   1    -0.136917557774E+01   -0.19305E-04   -0.56960E-06    15   0.352E-02    0.230E-02
RMM:   2    -0.137059512634E+01   -0.14195E-02   -0.87956E-05    16   0.106E-01    0.829E-01
RMM:   3    -0.136941945297E+01    0.11757E-02   -0.18917E-04    18   0.180E-01    0.423E-02
RMM:   4    -0.136917610868E+01    0.24334E-03   -0.11038E-04    18   0.111E-01    0.235E-02
RMM:   5    -0.136917809664E+01   -0.19880E-05   -0.15316E-05    15   0.548E-02
   8 F= -.13691781E+01 E0= -.13319758E+01  d E =-.426062E+02
 curvature:   0.00 expect dE=-0.255E-09 dE for cont linesearch -0.240E-09
 ZBRENT: interpolating
 opt :   1.0000  next Energy=   -42.828654 (dE=-0.841E+02)
 bond charge predicted
       N       E                     dE             d eps       ncg     rms          rms(c)
RMM:   1    -0.136916018573E+01    0.15923E-04   -0.45566E-06    13   0.279E-02    0.111E-02
RMM:   2    -0.136926652374E+01   -0.10634E-03   -0.74127E-06    12   0.259E-02    0.225E-01
RMM:   3    -0.136918612265E+01    0.80401E-04   -0.14672E-05    16   0.531E-02
   9 F= -.13691861E+01 E0= -.13319897E+01  d E =-.426062E+02
 curvature:   0.00 expect dE=-0.862E-10 dE for cont linesearch -0.812E-10
 ZBRENT:  accuracy reached
 opt :   0.0000  next Energy=     0.000000 (dE=-0.412E+02)
 bond charge predicted
       N       E                     dE             d eps       ncg     rms          rms(c)
RMM:   1    -0.135400310446E+01    0.15263E-01   -0.45363E-01    28   0.449E+00    0.102E-01
RMM:   2    -0.135502045681E+01   -0.10174E-02   -0.94339E-03    29   0.556E-01    0.322E-01
RMM:   3    -0.135689514298E+01   -0.18747E-02   -0.90614E-04    24   0.250E-01    0.980E-01
RMM:   4    -0.135512469139E+01    0.17705E-02   -0.44412E-04    22   0.257E-01    0.623E-02
RMM:   5    -0.135482120103E+01    0.30349E-03   -0.18999E-04    18   0.160E-01    0.326E-02
RMM:   6    -0.135480669951E+01    0.14502E-04   -0.28382E-05    16   0.702E-02
  10 F= -.13548067E+01 E0= -.13178270E+01  d E =-.425918E+02
 curvature:   0.00 expect dE= 0.736-309 dE for cont linesearch  0.696-309
 ZBRENT: fatal error in bracketing
     please rerun with smaller EDIFF, or copy CONTCAR
     to POSCAR and continue
 running on    8 total cores
 distrk:  each k-point on    8 cores,    1 groups
 distr:  one band on    4 cores,    2 groups
 using from now: INCAR     
 vasp.5.4.1 24Jun15 (build Jan 06 2016 13:19:48) gamma-only                     
  
 POSCAR found type information on POSCAR  Pt
 POSCAR found :  1 types and       2 ions
 scaLAPACK will be used

 ----------------------------------------------------------------------------- 
|                                                                             |
|  ADVICE TO THIS USER RUNNING 'VASP/VAMP'   (HEAR YOUR MASTER'S VOICE ...):  |
|                                                                             |
|      You have a (more or less) 'small supercell' and for smaller cells      |
|      it is recommended  to use the reciprocal-space projection scheme!      |
|      The real space optimization is not  efficient for small cells and it   |
|      is also less accurate ...                                              |
|      Therefore set LREAL=.FALSE. in the  INCAR file                         |
|                                                                             |
 ----------------------------------------------------------------------------- 

 LDA part: xc-table for Ceperly-Alder, standard interpolation
 POSCAR found type information on POSCAR  Pt
 POSCAR found :  1 types and       2 ions
 POSCAR, INCAR and KPOINTS ok, starting setup
 WARNING: small aliasing (wrap around) errors must be expected
 FFT: planning ...
 WAVECAR not read
 entering main loop
       N       E                     dE             d eps       ncg     rms          rms(c)
RMM:   1     0.147877511878E+03    0.14788E+03   -0.15672E+03    14   0.373E+02
RMM:   2     0.120943671136E+03   -0.26934E+02   -0.31427E+02    14   0.849E+01
RMM:   3     0.103615226754E+03   -0.17328E+02   -0.19360E+02    14   0.256E+01
RMM:   4     0.979219613419E+02   -0.56933E+01   -0.89797E+01    14   0.269E+01
RMM:   5     0.933784562041E+02   -0.45435E+01   -0.40423E+01    14   0.195E+01
RMM:   6     0.877461601371E+02   -0.56323E+01   -0.55287E+01    14   0.256E+01
RMM:   7     0.870168514270E+02   -0.72931E+00    0.32797E+01    14   0.307E+01
RMM:   8     0.648083126142E+02   -0.22209E+02   -0.21105E+02    14   0.519E+01
RMM:   9     0.398984471264E+02   -0.24910E+02   -0.18855E+02    50   0.529E+01
RMM:  10     0.305891441937E+02   -0.93093E+01   -0.81520E+01    38   0.326E+01
RMM:  11     0.297304210574E+02   -0.85872E+00   -0.97188E+00    40   0.174E+01
RMM:  12     0.278086367337E+02   -0.19218E+01   -0.60652E+00    46   0.769E+00    0.204E+01
RMM:  13     0.470518698037E+02    0.19243E+02   -0.11928E+02    36   0.729E+01    0.917E+00
RMM:  14     0.381873740753E+02   -0.88645E+01   -0.11467E+02    43   0.525E+01    0.710E+00
RMM:  15     0.397305832673E+02    0.15432E+01   -0.91545E-01    40   0.275E+01    0.573E+00
RMM:  16     0.407497289698E+02    0.10191E+01    0.60950E+00    43   0.971E+00    0.505E+00
RMM:  17     0.414205235603E+02    0.67079E+00    0.33446E+00    45   0.871E+00    0.417E+00
RMM:  18     0.417979922207E+02    0.37747E+00    0.22586E+00    49   0.674E+00    0.428E+00
RMM:  19     0.378884367956E+02   -0.39096E+01    0.10391E+00    50   0.430E+00    0.447E+00
RMM:  20     0.420009550578E+02    0.41125E+01    0.42652E+01    51   0.159E+01    0.438E+00
RMM:  21     0.420932487809E+02    0.92294E-01    0.19034E+00    48   0.458E+00    0.462E+00
RMM:  22     0.421387166131E+02    0.45468E-01    0.18570E-01    49   0.193E+00    0.484E+00
RMM:  23     0.421848347053E+02    0.46118E-01    0.10756E-01    50   0.170E+00    0.492E+00
RMM:  24     0.421959629608E+02    0.11128E-01    0.39507E-02    45   0.242E+00    0.525E+00
RMM:  25     0.423128720611E+02    0.11691E+00    0.35413E-01    40   0.357E+00    0.509E+00
RMM:  26     0.421754515574E+02   -0.13742E+00   -0.27151E-01    33   0.498E+00    0.609E+00
RMM:  27     0.390699932230E+02   -0.31055E+01   -0.11340E+01    38   0.227E+01    0.174E+01
RMM:  28     0.405696351318E+02    0.14996E+01    0.58531E+00    46   0.936E+00    0.134E+01
RMM:  29     0.406203866759E+02    0.50752E-01    0.81131E-01    43   0.481E+00    0.145E+01
RMM:  30     0.411652372279E+02    0.54485E+00   -0.51945E-02    37   0.457E+00    0.126E+01
RMM:  31     0.396881794439E+02   -0.14771E+01   -0.52107E-01    38   0.970E+00    0.177E+01
RMM:  32     0.398478801555E+02    0.15970E+00    0.40034E-02    50   0.269E+00    0.171E+01
RMM:  33     0.398417351039E+02   -0.61451E-02   -0.21980E-01    48   0.149E+00    0.172E+01
RMM:  34     0.398234435591E+02   -0.18292E-01   -0.32778E-02    49   0.837E-01    0.172E+01
RMM:  35     0.401611777779E+02    0.33773E+00   -0.16591E-02    36   0.261E+00    0.159E+01
RMM:  36     0.401543640832E+02   -0.68137E-02    0.14009E-02    48   0.965E-01    0.158E+01
RMM:  37     0.401685098324E+02    0.14146E-01   -0.10089E-02    34   0.258E+00    0.157E+01
RMM:  38     0.422697824017E+02    0.21013E+01   -0.20347E+00    36   0.142E+01    0.682E+00
RMM:  39     0.423103712770E+02    0.40589E-01   -0.58869E-01    47   0.505E+00    0.609E+00
RMM:  40     0.421820416384E+02   -0.12833E+00   -0.98570E-01    49   0.216E+00    0.575E+00
RMM:  41     0.422688184043E+02    0.86777E-01    0.48501E-02    46   0.284E+00    0.537E+00
RMM:  42     0.422317403218E+02   -0.37078E-01   -0.54355E-02    37   0.274E+00    0.568E+00
RMM:  43     0.420279821959E+02   -0.20376E+00   -0.71242E-01    41   0.534E+00    0.657E+00
RMM:  44     0.420388986089E+02    0.10916E-01   -0.12781E-01    46   0.256E+00    0.633E+00
RMM:  45     0.421035553389E+02    0.64657E-01    0.16429E+00    47   0.317E+00    0.681E+00
RMM:  46     0.420458769192E+02   -0.57678E-01    0.35982E-01    44   0.250E+00    0.689E+00
RMM:  47     0.394162892469E+02   -0.26296E+01   -0.79278E-02    50   0.152E+00    0.815E+00
RMM:  48     0.201703888408E+02   -0.19246E+02    0.76257E-01    42   0.317E+00    0.104E+01
RMM:  49     0.162598983542E+02   -0.39105E+01   -0.35435E+01    32   0.170E+01    0.125E+01
RMM:  50     0.162941582911E+02    0.34260E-01   -0.20453E+00    41   0.110E+01    0.124E+01
RMM:  51     0.160947222189E+02   -0.19944E+00   -0.17391E+00    47   0.165E+00    0.131E+01
RMM:  52     0.163057098225E+02    0.21099E+00   -0.28163E-01    44   0.142E+00    0.129E+01
RMM:  53     0.162924994037E+02   -0.13210E-01   -0.73768E-02    50   0.815E-01    0.130E+01
RMM:  54     0.162025473930E+02   -0.89952E-01   -0.66190E-02    40   0.119E+00    0.130E+01
RMM:  55     0.163122529845E+02    0.10971E+00    0.18968E-02    45   0.161E+00    0.128E+01
RMM:  56     0.163111393517E+02   -0.11136E-02    0.13035E-01    48   0.183E+00    0.129E+01
RMM:  57     0.167148067078E+02    0.40367E+00    0.27745E-02    46   0.208E+00    0.124E+01
RMM:  58     0.166580633296E+02   -0.56743E-01   -0.96574E-01    40   0.692E+00    0.123E+01
RMM:  59     0.166349852888E+02   -0.23078E-01   -0.12258E-01    45   0.307E+00    0.118E+01
RMM:  60     0.169910613287E+02    0.35608E+00    0.56165E+00    50   0.581E+00
   1 F= 0.16991061E+02 E0= 0.17002587E+02  d E =0.169911E+02
 curvature:   0.00 expect dE= 0.000E+00 dE for cont linesearch  0.000E+00
 trial: gam= 0.00000 g(F)=  0.326E-02 g(S)=  0.000E+00 ort = 0.000E+00 (trialstep = 0.100E+01)
 search vector abs. value=  0.326E-02
 bond charge predicted
       N       E                     dE             d eps       ncg     rms          rms(c)
RMM:   1     0.172490897196E+02    0.61410E+00   -0.61233E-01    38   0.505E+00    0.113E+01
RMM:   2     0.220962429216E+02    0.48472E+01   -0.10369E+01    34   0.258E+01    0.576E+00
RMM:   3     0.227918140921E+02    0.69557E+00   -0.22911E+00    44   0.158E+01    0.259E+00
RMM:   4     0.229999032282E+02    0.20809E+00    0.10792E+00    52   0.568E+00    0.163E+00
RMM:   5     0.232114595670E+02    0.21156E+00    0.17163E+00    48   0.451E+00    0.163E+00
RMM:   6     0.234709541716E+02    0.25949E+00    0.23183E+00    51   0.283E+00    0.317E+00
RMM:   7     0.236710027590E+02    0.20005E+00    0.13082E+00    45   0.294E+00    0.428E+00
RMM:   8     0.238672833136E+02    0.19628E+00    0.12245E+00    50   0.256E+00    0.494E+00
RMM:   9     0.237291530606E+02   -0.13813E+00   -0.14773E-01    34   0.361E+00    0.667E+00
RMM:  10     0.239611917168E+02    0.23204E+00    0.15398E+00    46   0.238E+00    0.679E+00
RMM:  11     0.241256568973E+02    0.16447E+00    0.87887E-01    50   0.217E+00    0.726E+00
RMM:  12     0.242481056528E+02    0.12245E+00    0.51597E-01    46   0.178E+00    0.761E+00
RMM:  13     0.243065439624E+02    0.58438E-01    0.24104E-01    41   0.187E+00    0.778E+00
RMM:  14     0.218088184235E+02   -0.24977E+01   -0.11557E-01    43   0.214E+00    0.843E+00
RMM:  15     0.588982895527E+01   -0.15919E+02    0.29426E-01    44   0.208E+00    0.106E+01
RMM:  16    -0.613878175400E+00   -0.65037E+01   -0.67036E+01    36   0.162E+01    0.125E+01
RMM:  17    -0.674037039977E+00   -0.60159E-01   -0.15208E+00    30   0.963E+00    0.125E+01
RMM:  18    -0.687686685519E+00   -0.13650E-01   -0.15739E-01    39   0.186E+00    0.126E+01
RMM:  19    -0.393664484764E+01   -0.32490E+01    0.64240E-01    38   0.197E+00    0.155E+01
RMM:  20    -0.563296013900E+01   -0.16963E+01   -0.18660E+01    42   0.108E+01    0.166E+01
RMM:  21    -0.536209886368E+01    0.27086E+00    0.12054E+00    43   0.415E+00    0.171E+01
RMM:  22    -0.525878041666E+01    0.10332E+00    0.42064E-01    38   0.258E+00    0.172E+01
RMM:  23    -0.545271475250E+01   -0.19393E+00    0.28367E-01    36   0.281E+00    0.170E+01
RMM:  24    -0.602256448074E+01   -0.56985E+00    0.25037E+00    34   0.575E+00    0.165E+01
RMM:  25    -0.583740378272E+01    0.18516E+00    0.75168E-01    42   0.269E+00    0.165E+01
RMM:  26    -0.600708246987E+01   -0.16968E+00    0.58801E-01    36   0.295E+00    0.165E+01
RMM:  27    -0.600872739932E+01   -0.16449E-02    0.30156E-01    38   0.171E+00    0.164E+01
RMM:  28    -0.599545344004E+01    0.13274E-01    0.16989E-01    30   0.971E-01    0.164E+01
RMM:  29    -0.599965153037E+01   -0.41981E-02    0.48244E-02    32   0.775E-01    0.164E+01
RMM:  30    -0.607536753323E+01   -0.75716E-01    0.15223E-02    39   0.837E-01    0.164E+01
RMM:  31    -0.621564584553E+01   -0.14028E+00    0.10820E-02    38   0.140E+00    0.163E+01
RMM:  32    -0.628087395964E+01   -0.65228E-01    0.56473E-02    43   0.109E+00    0.163E+01
RMM:  33    -0.627650359675E+01    0.43704E-02    0.36695E-02    37   0.674E-01    0.164E+01
RMM:  34    -0.647538929054E+01   -0.19889E+00    0.10109E-02    32   0.124E+00    0.164E+01
RMM:  35    -0.687867876392E+01   -0.40329E+00    0.80466E-03    33   0.248E+00    0.166E+01
RMM:  36    -0.187931835400E+02   -0.11915E+02    0.21571E-02    43   0.104E+00    0.227E+01
RMM:  37    -0.272136672813E+02   -0.84205E+01   -0.66001E+01    34   0.171E+01    0.232E+01
RMM:  38    -0.272472953707E+02   -0.33628E-01   -0.10676E+00    28   0.803E+00    0.231E+01
RMM:  39    -0.274265237642E+02   -0.17923E+00   -0.27503E-02    28   0.153E+00    0.233E+01
RMM:  40    -0.273540790503E+02    0.72445E-01   -0.20818E-02    25   0.126E+00    0.232E+01
RMM:  41    -0.275448478390E+02   -0.19077E+00   -0.31984E-02    28   0.154E+00    0.234E+01
RMM:  42    -0.273222475217E+02    0.22260E+00   -0.31831E-02    28   0.158E+00    0.233E+01
RMM:  43    -0.275720563956E+02   -0.24981E+00   -0.38142E-02    28   0.169E+00    0.234E+01
RMM:  44    -0.272857769652E+02    0.28628E+00   -0.38341E-02    28   0.176E+00    0.232E+01
RMM:  45    -0.275700835571E+02   -0.28431E+00   -0.38356E-02    28   0.167E+00    0.233E+01
RMM:  46    -0.273114241726E+02    0.25866E+00   -0.39041E-02    28   0.172E+00    0.232E+01
RMM:  47    -0.280641762712E+02   -0.75275E+00   -0.30995E-01    28   0.578E+00    0.230E+01
RMM:  48    -0.277094415918E+02    0.35473E+00   -0.44922E-02    28   0.204E+00    0.229E+01
RMM:  49    -0.279694965603E+02   -0.26005E+00   -0.39165E-02    28   0.166E+00    0.230E+01
RMM:  50    -0.275667045197E+02    0.40279E+00   -0.40158E-02    28   0.184E+00    0.228E+01
RMM:  51    -0.277487500049E+02   -0.18205E+00   -0.38341E-02    28   0.168E+00    0.229E+01
RMM:  52    -0.352183506142E+02   -0.74696E+01   -0.30398E+00    28   0.168E+01    0.260E+01
RMM:  53    -0.347482854300E+02    0.47007E+00   -0.99013E-02    28   0.341E+00    0.261E+01
RMM:  54    -0.344458229231E+02    0.30246E+00   -0.57004E-02    28   0.208E+00    0.259E+01
RMM:  55    -0.313485408191E+02    0.30973E+01   -0.34113E-01    28   0.604E+00    0.251E+01
RMM:  56    -0.297386780772E+02    0.16099E+01   -0.12393E-01    28   0.373E+00    0.245E+01
RMM:  57    -0.219097791088E+02    0.78289E+01   -0.32978E+00    28   0.166E+01    0.235E+01
RMM:  58    -0.160761647552E+02    0.58336E+01   -0.40422E+00    28   0.200E+01    0.229E+01
RMM:  59    -0.149213671853E+02    0.11548E+01   -0.21651E+00    28   0.136E+01    0.256E+01
RMM:  60    -0.148606006152E+02    0.60767E-01   -0.17881E-01    29   0.361E+00
   2 F= -.14860601E+02 E0= -.14864911E+02  d E =-.318517E+02
 trial-energy change:  -31.851662  1 .order   -0.001462   -0.003261    0.000338
 step:   1.0000(harm=  0.9061)  dis= 0.00310  next Energy=   -14.860601 (dE=-0.319E+02)
 bond charge predicted
       N       E                     dE             d eps       ncg     rms          rms(c)
RMM:   1    -0.152918643796E+02   -0.37050E+00   -0.22753E-01    28   0.461E+00    0.266E+01
RMM:   2    -0.550882325215E+01    0.97830E+01   -0.23786E+01    28   0.552E+01    0.155E+01
RMM:   3    -0.130962638608E+02   -0.75874E+01   -0.16443E+01    28   0.320E+01    0.205E+01
RMM:   4    -0.343350679427E+01    0.96628E+01   -0.29474E+00    28   0.164E+01    0.102E+01
RMM:   5    -0.255806029828E+01    0.87545E+00   -0.25976E+00    28   0.132E+01    0.901E+00
RMM:   6    -0.175956142835E+01    0.79850E+00   -0.20804E-01    29   0.332E+00    0.734E+00
RMM:   7    -0.174846372480E+01    0.11098E-01   -0.22086E-01    32   0.342E+00    0.620E+00
RMM:   8    -0.178311045464E+01   -0.34647E-01   -0.20720E-01    28   0.424E+00    0.634E+00
RMM:   9    -0.143269755064E+01    0.35041E+00   -0.35219E-02    28   0.168E+00    0.386E+00
RMM:  10    -0.151297782155E+01   -0.80280E-01   -0.14652E-01    28   0.344E+00    0.558E+00
RMM:  11    -0.141655187313E+01    0.96426E-01   -0.23477E-02    28   0.171E+00    0.380E+00
RMM:  12    -0.143141753357E+01   -0.14866E-01   -0.93044E-03    28   0.893E-01    0.490E+00
RMM:  13    -0.138064017686E+01    0.50777E-01   -0.54207E-03    28   0.738E-01    0.290E+00
RMM:  14    -0.140806059608E+01   -0.27420E-01   -0.17172E-02    28   0.114E+00    0.445E+00
RMM:  15    -0.137106556108E+01    0.36995E-01   -0.92081E-03    28   0.876E-01    0.171E+00
RMM:  16    -0.136359984140E+01    0.74657E-02   -0.32799E-03    28   0.633E-01    0.866E-01
RMM:  17    -0.137351759591E+01   -0.99178E-02   -0.21207E-03    28   0.459E-01    0.216E+00
RMM:  18    -0.136661474485E+01    0.69029E-02   -0.23455E-03    28   0.467E-01    0.120E+00
RMM:  19    -0.136939797159E+01   -0.27832E-02   -0.16869E-03    28   0.361E-01    0.138E+00
RMM:  20    -0.137665544078E+01   -0.72575E-02   -0.39930E-03    28   0.627E-01    0.207E+00
RMM:  21    -0.136878842122E+01    0.78670E-02   -0.16032E-03    28   0.422E-01    0.261E-01
RMM:  22    -0.136937949297E+01   -0.59107E-03   -0.99484E-04    26   0.336E-01    0.314E-01
RMM:  23    -0.137549545870E+01   -0.61160E-02   -0.11119E-03    28   0.270E-01    0.145E+00
RMM:  24    -0.137300578311E+01    0.24897E-02   -0.74434E-04    25   0.215E-01    0.468E-01
RMM:  25    -0.137381089003E+01   -0.80511E-03   -0.64311E-04    26   0.205E-01    0.208E-01
RMM:  26    -0.137411653875E+01   -0.30565E-03   -0.16616E-04    18   0.116E-01    0.824E-02
RMM:  27    -0.137480847094E+01   -0.69193E-03   -0.14270E-04    18   0.907E-02    0.259E-01
RMM:  28    -0.137564016958E+01   -0.83170E-03   -0.22541E-04    18   0.994E-02    0.425E-02
RMM:  29    -0.137618497181E+01   -0.54480E-03   -0.13625E-04    18   0.803E-02    0.128E-01
RMM:  30    -0.137656688451E+01   -0.38191E-03   -0.78333E-05    18   0.634E-02    0.635E-02
RMM:  31    -0.137700451764E+01   -0.43763E-03   -0.11578E-04    18   0.734E-02    0.166E-01
RMM:  32    -0.137722353034E+01   -0.21901E-03   -0.68647E-05    17   0.599E-02    0.128E-01
RMM:  33    -0.137722409446E+01   -0.56412E-06   -0.27133E-05    16   0.538E-02
   3 F= -.13772241E+01 E0= -.13398872E+01  d E =-.183683E+02
 curvature:   0.00 expect dE=-0.510E-06 dE for cont linesearch -0.348E-06
 ZBRENT: interpolating
 opt :   1.0000  next Energy=   -14.860601 (dE=-0.319E+02)
 bond charge predicted
       N       E                     dE             d eps       ncg     rms          rms(c)
RMM:   1    -0.137722865460E+01   -0.51243E-05   -0.13043E-05    15   0.356E-02    0.306E-02
RMM:   2    -0.137967566127E+01   -0.24470E-02   -0.17262E-04    16   0.131E-01    0.108E+00
RMM:   3    -0.137759360909E+01    0.20821E-02   -0.34203E-04    21   0.245E-01    0.545E-02
RMM:   4    -0.137728495841E+01    0.30865E-03   -0.17151E-04    18   0.137E-01    0.204E-02
RMM:   5    -0.137725303245E+01    0.31926E-04   -0.26341E-05    16   0.698E-02
   4 F= -.13772530E+01 E0= -.13399247E+01  d E =-.183683E+02
 curvature:   0.00 expect dE=-0.174E-10 dE for cont linesearch -0.119E-10
 ZBRENT: interpolating
 opt :   1.0000  next Energy=   -14.860601 (dE=-0.319E+02)
 bond charge predicted
       N       E                     dE             d eps       ncg     rms          rms(c)
RMM:   1    -0.137725252339E+01    0.32435E-04   -0.84850E-06    13   0.384E-02    0.890E-03
RMM:   2    -0.137729460824E+01   -0.42085E-04   -0.34783E-06    12   0.272E-02
   5 F= -.13772946E+01 E0= -.13399753E+01  d E =-.183684E+02
 curvature:   0.00 expect dE=-0.692E-12 dE for cont linesearch -0.473E-12
 ZBRENT:  accuracy reached
 opt :   0.0000  next Energy=     0.000000 (dE=-0.170E+02)
 bond charge predicted
       N       E                     dE             d eps       ncg     rms          rms(c)
RMM:   1    -0.136879616645E+01    0.84564E-02   -0.19637E-01    28   0.297E+00    0.712E-02
RMM:   2    -0.137140473288E+01   -0.26086E-02   -0.41395E-03    28   0.394E-01    0.103E+00
RMM:   3    -0.136957737700E+01    0.18274E-02   -0.61015E-04    25   0.211E-01    0.195E-01
RMM:   4    -0.136920477417E+01    0.37260E-03   -0.26707E-04    19   0.198E-01    0.366E-02
RMM:   5    -0.136916811421E+01    0.36660E-04   -0.47940E-05    16   0.967E-02
   6 F= -.13691681E+01 E0= -.13319791E+01  d E =-.183602E+02
 curvature:   0.00 expect dE= 0.103-308 dE for cont linesearch  0.709-309
 ZBRENT: fatal error in bracketing
     please rerun with smaller EDIFF, or copy CONTCAR
     to POSCAR and continue
 running on    8 total cores
 distrk:  each k-point on    8 cores,    1 groups
 distr:  one band on    4 cores,    2 groups
 using from now: INCAR     
 vasp.5.4.1 24Jun15 (build Jan 06 2016 13:19:48) gamma-only                     
  
 POSCAR found type information on POSCAR  Pt
 POSCAR found :  1 types and       2 ions
 scaLAPACK will be used

 ----------------------------------------------------------------------------- 
|                                                                             |
|  ADVICE TO THIS USER RUNNING 'VASP/VAMP'   (HEAR YOUR MASTER'S VOICE ...):  |
|                                                                             |
|      You have a (more or less) 'small supercell' and for smaller cells      |
|      it is recommended  to use the reciprocal-space projection scheme!      |
|      The real space optimization is not  efficient for small cells and it   |
|      is also less accurate ...                                              |
|      Therefore set LREAL=.FALSE. in the  INCAR file                         |
|                                                                             |
 ----------------------------------------------------------------------------- 

 LDA part: xc-table for Ceperly-Alder, standard interpolation
 POSCAR found type information on POSCAR  Pt
 POSCAR found :  1 types and       2 ions
 POSCAR, INCAR and KPOINTS ok, starting setup
 WARNING: small aliasing (wrap around) errors must be expected
 FFT: planning ...
 WAVECAR not read
 entering main loop
       N       E                     dE             d eps       ncg     rms          rms(c)
RMM:   1     0.147878688930E+03    0.14788E+03   -0.15672E+03    14   0.373E+02
RMM:   2     0.120946957968E+03   -0.26932E+02   -0.31430E+02    14   0.849E+01
RMM:   3     0.103617846715E+03   -0.17329E+02   -0.19361E+02    14   0.256E+01
RMM:   4     0.979314985904E+02   -0.56863E+01   -0.89849E+01    14   0.269E+01
RMM:   5     0.933624451242E+02   -0.45691E+01   -0.40686E+01    14   0.195E+01
RMM:   6     0.877091437504E+02   -0.56533E+01   -0.55467E+01    14   0.257E+01
RMM:   7     0.869782400267E+02   -0.73090E+00    0.32176E+01    14   0.308E+01
RMM:   8     0.641261180187E+02   -0.22852E+02   -0.21617E+02    14   0.521E+01
RMM:   9     0.390082647853E+02   -0.25118E+02   -0.18267E+02    46   0.526E+01
RMM:  10     0.302819641232E+02   -0.87263E+01   -0.74598E+01    39   0.328E+01
RMM:  11     0.300844141941E+02   -0.19755E+00   -0.68126E-01    41   0.178E+01
RMM:  12     0.285958459380E+02   -0.14886E+01   -0.31653E+00    46   0.754E+00    0.209E+01
RMM:  13     0.532097918831E+02    0.24614E+02   -0.82390E+01    34   0.734E+01    0.104E+01
RMM:  14     0.578837002443E+02    0.46739E+01   -0.14183E+01    38   0.640E+01    0.469E+00
RMM:  15     0.546763874311E+02   -0.32073E+01   -0.20397E+01    54   0.481E+01    0.583E+00
RMM:  16     0.494218480987E+02   -0.52545E+01   -0.34456E+01    49   0.373E+01    0.843E+00
RMM:  17     0.400535924637E+02   -0.93683E+01   -0.66689E+01    45   0.260E+01    0.847E+00
RMM:  18     0.402597987262E+02    0.20621E+00   -0.15434E+00    43   0.132E+01    0.830E+00
RMM:  19     0.405717213300E+02    0.31192E+00    0.32961E+00    51   0.510E+00    0.854E+00
RMM:  20     0.406432408164E+02    0.71519E-01    0.11908E+00    49   0.372E+00    0.864E+00
RMM:  21     0.408403785287E+02    0.19714E+00    0.27949E+01    47   0.155E+01    0.871E+00
RMM:  22     0.406196695831E+02   -0.22071E+00   -0.11311E+00    49   0.403E+00    0.890E+00
RMM:  23     0.405861694086E+02   -0.33500E-01    0.92106E-02    45   0.344E+00    0.930E+00
RMM:  24     0.404237060756E+02   -0.16246E+00   -0.31646E-01    45   0.418E+00    0.901E+00
RMM:  25     0.401323204552E+02   -0.29139E+00    0.13943E+00    46   0.668E+00    0.842E+00
RMM:  26     0.402033596658E+02    0.71039E-01    0.17121E+00    50   0.432E+00    0.798E+00
RMM:  27     0.402508552316E+02    0.47496E-01    0.41958E-01    50   0.249E+00    0.794E+00
RMM:  28     0.403200780527E+02    0.69223E-01    0.26999E-01    40   0.323E+00    0.795E+00
RMM:  29     0.402498921611E+02   -0.70186E-01   -0.18102E-01    46   0.224E+00    0.820E+00
RMM:  30     0.378275539826E+02   -0.24223E+01    0.14538E+01    34   0.263E+01    0.978E+00
RMM:  31     0.365047187558E+02   -0.13228E+01    0.58899E+00    45   0.167E+01    0.135E+01
RMM:  32     0.367664711209E+02    0.26175E+00    0.14639E+00    47   0.562E+00    0.136E+01
RMM:  33     0.364143270041E+02   -0.35214E+00   -0.49580E-01    50   0.360E+00    0.141E+01
RMM:  34     0.365073634321E+02    0.93036E-01    0.72127E-01    50   0.235E+00    0.141E+01
RMM:  35     0.363733325034E+02   -0.13403E+00   -0.35044E-01    45   0.214E+00    0.143E+01
RMM:  36     0.357253165500E+02   -0.64802E+00   -0.12397E-01    47   0.415E+00    0.151E+01
RMM:  37     0.357473286258E+02    0.22012E-01   -0.65548E-02    46   0.366E+00    0.152E+01
RMM:  38     0.301419322444E+02   -0.56054E+01   -0.40118E+01    44   0.223E+01    0.157E+01
RMM:  39     0.150840567353E+02   -0.15058E+02   -0.10797E+02    49   0.179E+01    0.177E+01
RMM:  40     0.146789484781E+02   -0.40511E+00   -0.73786E+00    38   0.127E+01    0.175E+01
RMM:  41     0.159013179541E+02    0.12224E+01    0.86616E+00    54   0.703E+00    0.185E+01
RMM:  42     0.161446224152E+02    0.24330E+00    0.21261E+00    47   0.348E+00    0.183E+01
RMM:  43     0.166641186017E+02    0.51950E+00   -0.52853E-01    39   0.664E+00    0.174E+01
RMM:  44     0.153101084177E+02   -0.13540E+01    0.18247E-01    37   0.578E+00    0.192E+01
RMM:  45     0.112453974367E+02   -0.40647E+01   -0.19741E+00    36   0.116E+01    0.240E+01
RMM:  46     0.115402622159E+02    0.29486E+00    0.18119E+00    51   0.405E+00    0.238E+01
RMM:  47     0.508242392553E+01   -0.64578E+01   -0.32099E-01    44   0.449E+00    0.247E+01
RMM:  48    -0.616031685977E+01   -0.11243E+02   -0.12561E+02    48   0.220E+01    0.258E+01
RMM:  49    -0.629688003791E+01   -0.13656E+00   -0.11242E+01    41   0.186E+01    0.245E+01
RMM:  50    -0.155991859127E+02   -0.93023E+01    0.71699E+00    48   0.644E+00    0.277E+01
RMM:  51    -0.264955891771E+02   -0.10896E+02   -0.10873E+02    40   0.213E+01    0.287E+01
RMM:  52    -0.260548582909E+02    0.44073E+00   -0.21001E+00    40   0.166E+01    0.288E+01
RMM:  53    -0.259671145441E+02    0.87744E-01    0.77742E-01    40   0.357E+00    0.287E+01
RMM:  54    -0.258709784496E+02    0.96136E-01    0.66265E-01    44   0.151E+00    0.287E+01
RMM:  55    -0.257165356563E+02    0.15444E+00    0.37523E-01    38   0.150E+00    0.286E+01
RMM:  56    -0.241487342806E+02    0.15678E+01   -0.87921E-02    34   0.284E+00    0.274E+01
RMM:  57    -0.243173917143E+02   -0.16866E+00   -0.89611E-02    31   0.277E+00    0.272E+01
RMM:  58    -0.288198658842E+02   -0.45025E+01   -0.23726E+00    28   0.155E+01    0.317E+01
RMM:  59    -0.331261592679E+02   -0.43063E+01   -0.16011E-02    36   0.619E+00    0.340E+01
RMM:  60    -0.330923109926E+02    0.33848E-01    0.32299E-01    45   0.202E+00
   1 F= -.33092311E+02 E0= -.33096176E+02  d E =-.330923E+02
 curvature:   0.00 expect dE= 0.000E+00 dE for cont linesearch  0.000E+00
 trial: gam= 0.00000 g(F)=  0.190E+00 g(S)=  0.000E+00 ort = 0.000E+00 (trialstep = 0.100E+01)
 search vector abs. value=  0.190E+00
 bond charge predicted
       N       E                     dE             d eps       ncg     rms          rms(c)
RMM:   1    -0.347375181333E+02   -0.16114E+01   -0.11524E+01    29   0.225E+01    0.349E+01
RMM:   2    -0.114914548588E+02    0.23246E+02   -0.21257E+01    28   0.428E+01    0.216E+01
RMM:   3    -0.671179928988E+01    0.47797E+01   -0.64466E+01    29   0.654E+01    0.181E+01
RMM:   4    -0.101068882787E+02   -0.33951E+01   -0.18970E+01    32   0.302E+01    0.189E+01
RMM:   5    -0.422441141841E+01    0.58825E+01   -0.17651E+00    29   0.111E+01    0.143E+01
RMM:   6    -0.256157664470E+01    0.16628E+01   -0.26185E+00    30   0.138E+01    0.988E+00
RMM:   7    -0.239699839924E+01    0.16458E+00   -0.28000E+00    28   0.162E+01    0.604E+00
RMM:   8    -0.243066435839E+01   -0.33666E-01   -0.12019E+00    28   0.924E+00    0.704E+00
RMM:   9    -0.193200795764E+01    0.49866E+00   -0.19745E-01    30   0.258E+00    0.772E+00
RMM:  10    -0.157575757316E+01    0.35625E+00   -0.85979E-02    28   0.267E+00    0.404E+00
RMM:  11    -0.147526638362E+01    0.10049E+00   -0.95357E-02    28   0.289E+00    0.577E+00
RMM:  12    -0.141228961610E+01    0.62977E-01   -0.12759E-02    30   0.924E-01    0.439E+00
RMM:  13    -0.143708348400E+01   -0.24794E-01   -0.50251E-03    28   0.686E-01    0.488E+00
RMM:  14    -0.144164043550E+01   -0.45570E-02   -0.60286E-03    28   0.757E-01    0.550E+00
RMM:  15    -0.142228445746E+01    0.19356E-01   -0.44561E-03    28   0.649E-01    0.487E+00
RMM:  16    -0.143306000032E+01   -0.10776E-01   -0.31101E-03    27   0.564E-01    0.512E+00
RMM:  17    -0.142228331882E+01    0.10777E-01   -0.90477E-03    28   0.946E-01    0.557E+00
RMM:  18    -0.160099973351E+01   -0.17872E+00   -0.16140E-01    28   0.302E+00    0.837E+00
RMM:  19    -0.139502181186E+01    0.20598E+00   -0.96458E-02    28   0.270E+00    0.571E+00
RMM:  20    -0.137688064676E+01    0.18141E-01   -0.28674E-02    28   0.158E+00    0.666E+00
RMM:  21    -0.137747575632E+01   -0.59511E-03   -0.34014E-02    28   0.175E+00    0.549E+00
RMM:  22    -0.139854441282E+01   -0.21069E-01   -0.18651E-02    28   0.135E+00    0.480E+00
RMM:  23    -0.136049700695E+01    0.38047E-01   -0.20803E-02    28   0.150E+00    0.239E+00
RMM:  24    -0.132067920996E+01    0.39818E-01   -0.10688E-02    28   0.110E+00    0.207E+00
RMM:  25    -0.131420749361E+01    0.64717E-02   -0.44618E-03    28   0.630E-01    0.264E+00
RMM:  26    -0.130141118659E+01    0.12796E-01   -0.40298E-03    28   0.635E-01    0.153E+00
RMM:  27    -0.131255424877E+01   -0.11143E-01   -0.53805E-03    28   0.726E-01    0.174E+00
RMM:  28    -0.134382062552E+01   -0.31266E-01   -0.10647E-02    28   0.102E+00    0.304E+00
RMM:  29    -0.132658952774E+01    0.17231E-01   -0.79178E-03    28   0.755E-01    0.140E+00
RMM:  30    -0.133767202470E+01   -0.11082E-01   -0.59356E-03    28   0.730E-01    0.212E+00
RMM:  31    -0.133020666692E+01    0.74654E-02   -0.28366E-03    28   0.568E-01    0.779E-01
RMM:  32    -0.133709299464E+01   -0.68863E-02   -0.64629E-03    28   0.797E-01    0.105E+00
RMM:  33    -0.133132679258E+01    0.57662E-02   -0.15331E-03    26   0.424E-01    0.636E-01
RMM:  34    -0.134213509818E+01   -0.10808E-01   -0.26924E-03    28   0.510E-01    0.173E+00
RMM:  35    -0.133463590558E+01    0.74992E-02   -0.13578E-03    27   0.403E-01    0.449E-01
RMM:  36    -0.133865604435E+01   -0.40201E-02   -0.35246E-03    28   0.603E-01    0.580E-01
RMM:  37    -0.133993148611E+01   -0.12754E-02   -0.16828E-03    28   0.421E-01    0.205E-01
RMM:  38    -0.134114968449E+01   -0.12182E-02   -0.83660E-04    25   0.305E-01    0.193E-01
RMM:  39    -0.134263749804E+01   -0.14878E-02   -0.10970E-03    26   0.342E-01    0.375E-01
RMM:  40    -0.134316805283E+01   -0.53055E-03   -0.45362E-04    22   0.229E-01    0.206E-01
RMM:  41    -0.134324177116E+01   -0.73718E-04   -0.43876E-04    21   0.221E-01
   2 F= -.13432418E+01 E0= -.13063637E+01  d E =0.317491E+02
 trial-energy change:   31.749069  1 .order   -0.078386   -0.189747    0.032976
 step:   0.8519(harm=  0.8519)  dis= 0.01933  next Energy=   -33.173138 (dE=-0.808E-01)
 bond charge predicted
       N       E                     dE             d eps       ncg     rms          rms(c)
RMM:   1    -0.134837814824E+01   -0.52101E-02   -0.25187E-01    28   0.335E+00    0.198E-01
RMM:   2    -0.135239345989E+01   -0.40153E-02   -0.53040E-03    28   0.531E-01    0.128E+00
RMM:   3    -0.135027265337E+01    0.21208E-02   -0.12817E-03    28   0.334E-01    0.712E-01
RMM:   4    -0.134936562585E+01    0.90703E-03   -0.57727E-04    23   0.289E-01    0.146E-01
RMM:   5    -0.134901361544E+01    0.35201E-03   -0.33797E-04    19   0.227E-01    0.796E-02
RMM:   6    -0.134908737480E+01   -0.73759E-04   -0.95357E-05    18   0.134E-01
   3 F= -.13490874E+01 E0= -.13121512E+01  d E =0.317432E+02
 curvature:  -0.43 expect dE=-0.120E-01 dE for cont linesearch -0.234E-02
 ZBRENT: interpolating
 opt :   0.7281  next Energy=    -1.351086 (dE= 0.317E+02)
 bond charge predicted
       N       E                     dE             d eps       ncg     rms          rms(c)
RMM:   1    -0.135285273517E+01   -0.38391E-02   -0.17716E-01    28   0.281E+00    0.679E-02
RMM:   2    -0.135358846631E+01   -0.73573E-03   -0.34540E-03    28   0.384E-01    0.429E-01
RMM:   3    -0.135355909966E+01    0.29367E-04   -0.42367E-04    23   0.212E-01
   4 F= -.13535591E+01 E0= -.13167026E+01  d E =0.317388E+02
 curvature:  -0.36 expect dE=-0.998E-02 dE for cont linesearch -0.174E-02
 ZBRENT: bisectioning
 opt :   0.3641  next Energy=    -1.363377 (dE= 0.317E+02)
 bond charge predicted
       N       E                     dE             d eps       ncg     rms          rms(c)
RMM:   1    -0.136239787790E+01   -0.88094E-02   -0.15281E+00    28   0.822E+00    0.194E-01
RMM:   2    -0.136610251173E+01   -0.37046E-02   -0.30334E-02    28   0.119E+00    0.415E-01
RMM:   3    -0.137510921694E+01   -0.90067E-02   -0.41180E-03    33   0.544E-01    0.209E+00
RMM:   4    -0.136610502283E+01    0.90042E-02   -0.14387E-03    28   0.366E-01    0.175E-01
RMM:   5    -0.136545048078E+01    0.65454E-03   -0.69140E-04    26   0.293E-01    0.852E-02
RMM:   6    -0.136536140202E+01    0.89079E-04   -0.10435E-04    18   0.121E-01
   5 F= -.13653614E+01 E0= -.13282240E+01  d E =0.317269E+02
 curvature:  -2.05 expect dE=-0.595E-01 dE for cont linesearch -0.114E-01
 ZBRENT: bisectioning
 opt :   0.1820  next Energy=    -1.371392 (dE= 0.317E+02)
 bond charge predicted
       N       E                     dE             d eps       ncg     rms          rms(c)
RMM:   1    -0.137057550336E+01   -0.51250E-02   -0.38161E-01    28   0.412E+00    0.632E-02
RMM:   2    -0.137145147521E+01   -0.87597E-03   -0.68463E-03    28   0.528E-01    0.284E-01
RMM:   3    -0.137186639470E+01   -0.41492E-03   -0.64665E-04    26   0.238E-01    0.493E-01
RMM:   4    -0.137138000569E+01    0.48639E-03   -0.16134E-04    18   0.145E-01    0.537E-02
RMM:   5    -0.137129436815E+01    0.85638E-04   -0.72397E-05    16   0.108E-01
   6 F= -.13712944E+01 E0= -.13340521E+01  d E =0.317210E+02
 curvature:  -1.08 expect dE=-0.314E-01 dE for cont linesearch -0.573E-02
 ZBRENT: bisectioning
 opt :   0.0910  next Energy=    -1.374163 (dE= 0.317E+02)
 bond charge predicted
       N       E                     dE             d eps       ncg     rms          rms(c)
RMM:   1    -0.137408991599E+01   -0.27099E-02   -0.96207E-02    28   0.206E+00    0.247E-02
RMM:   2    -0.137431188459E+01   -0.22197E-03   -0.16899E-03    27   0.264E-01    0.148E-01
RMM:   3    -0.137430952717E+01    0.23574E-05   -0.11164E-04    15   0.104E-01
   7 F= -.13743095E+01 E0= -.13370840E+01  d E =0.317180E+02
 curvature:  -0.54 expect dE=-0.156E-01 dE for cont linesearch -0.268E-02
 ZBRENT: bisectioning
 opt :   0.0455  next Energy=    -1.375691 (dE= 0.317E+02)
 bond charge predicted
       N       E                     dE             d eps       ncg     rms          rms(c)
RMM:   1    -0.137572367627E+01   -0.14118E-02   -0.24781E-02    28   0.105E+00    0.186E-02
RMM:   2    -0.137579577412E+01   -0.72098E-04   -0.41927E-04    22   0.176E-01
   8 F= -.13757958E+01 E0= -.13384621E+01  d E =0.317165E+02
 curvature:  -0.28 expect dE=-0.796E-02 dE for cont linesearch -0.130E-02
 ZBRENT: bisectioning
 opt :   0.0228  next Energy=    -1.376467 (dE= 0.317E+02)
 bond charge predicted
       N       E                     dE             d eps       ncg     rms          rms(c)
RMM:   1    -0.137652456578E+01   -0.80089E-03   -0.66703E-03    28   0.541E-01    0.656E-02
RMM:   2    -0.138888532768E+01   -0.12361E-01   -0.10970E-03    28   0.274E-01    0.237E+00
RMM:   3    -0.137724638210E+01    0.11639E-01   -0.12520E-03    28   0.339E-01    0.104E-01
RMM:   4    -0.137669722670E+01    0.54916E-03   -0.69419E-04    26   0.283E-01    0.572E-02
RMM:   5    -0.137660604234E+01    0.91184E-04   -0.88649E-05    18   0.118E-01
   9 F= -.13766060E+01 E0= -.13392457E+01  d E =0.317157E+02
 curvature:  -0.14 expect dE=-0.428E-02 dE for cont linesearch -0.811E-03
 ZBRENT: bisectioning
 opt :   0.0114  next Energy=    -1.376986 (dE= 0.317E+02)
 bond charge predicted
       N       E                     dE             d eps       ncg     rms          rms(c)
RMM:   1    -0.137689705677E+01   -0.19983E-03   -0.15401E-03    28   0.276E-01    0.200E-02
RMM:   2    -0.137694416805E+01   -0.47111E-04   -0.34401E-05    15   0.776E-02
  10 F= -.13769442E+01 E0= -.13396659E+01  d E =0.317154E+02
 curvature:  -0.07 expect dE=-0.198E-02 dE for cont linesearch -0.354E-03
 ZBRENT: bisectioning
 opt :   0.0057  next Energy=    -1.377122 (dE= 0.317E+02)
 bond charge predicted
       N       E                     dE             d eps       ncg     rms          rms(c)
RMM:   1    -0.137711619588E+01   -0.21914E-03   -0.44962E-04    23   0.145E-01    0.924E-02
RMM:   2    -0.140231225705E+01   -0.25196E-01   -0.21032E-03    28   0.409E-01    0.328E+00
RMM:   3    -0.137767526398E+01    0.24637E-01   -0.21937E-03    28   0.450E-01    0.150E-01
RMM:   4    -0.137742606395E+01    0.24920E-03   -0.10960E-03    26   0.348E-01    0.753E-02
RMM:   5    -0.137723401983E+01    0.19204E-03   -0.18305E-04    18   0.167E-01    0.329E-02
RMM:   6    -0.137710691732E+01    0.12710E-03   -0.85363E-05    18   0.115E-01    0.251E-02
RMM:   7    -0.137711665947E+01   -0.97421E-05   -0.15853E-05    14   0.543E-02
  11 F= -.13771167E+01 E0= -.13397885E+01  d E =0.317152E+02
 curvature:  -0.03 expect dE=-0.101E-02 dE for cont linesearch -0.192E-03
 ZBRENT: bisectioning
 opt :   0.0028  next Energy=    -1.377211 (dE= 0.317E+02)
 bond charge predicted
       N       E                     dE             d eps       ncg     rms          rms(c)
RMM:   1    -0.137718969534E+01   -0.82778E-04   -0.93878E-05    15   0.737E-02    0.123E-02
RMM:   2    -0.137722058462E+01   -0.30889E-04   -0.12106E-05    14   0.438E-02
  12 F= -.13772206E+01 E0= -.13399044E+01  d E =0.317151E+02
 curvature:  -0.02 expect dE=-0.491E-03 dE for cont linesearch -0.908E-04
 ZBRENT: bisectioning
 opt :   0.0014  next Energy=    -1.377266 (dE= 0.317E+02)
 bond charge predicted
       N       E                     dE             d eps       ncg     rms          rms(c)
RMM:   1    -0.137724458847E+01   -0.54893E-04   -0.32241E-05    14   0.463E-02    0.219E-02
RMM:   2    -0.137854362214E+01   -0.12990E-02   -0.97240E-05    16   0.117E-01    0.790E-01
RMM:   3    -0.137747198066E+01    0.10716E-02   -0.16750E-04    18   0.172E-01    0.408E-02
RMM:   4    -0.137725759816E+01    0.21438E-03   -0.95000E-05    18   0.104E-01    0.207E-02
RMM:   5    -0.137725365348E+01    0.39447E-05   -0.13682E-05    15   0.520E-02
  13 F= -.13772537E+01 E0= -.13399285E+01  d E =0.317151E+02
 curvature:  -0.01 expect dE=-0.248E-03 dE for cont linesearch -0.469E-04
 ZBRENT: bisectioning
 opt :   0.0007  next Energy=    -1.377277 (dE= 0.317E+02)
 bond charge predicted
       N       E                     dE             d eps       ncg     rms          rms(c)
RMM:   1    -0.137726463830E+01   -0.70401E-05   -0.95673E-06    15   0.319E-02    0.118E-02
RMM:   2    -0.137750482842E+01   -0.24019E-03   -0.19164E-05    15   0.430E-02    0.339E-01
RMM:   3    -0.137731475731E+01    0.19007E-03   -0.30213E-05    16   0.793E-02    0.248E-02
RMM:   4    -0.137727093792E+01    0.43819E-04   -0.15116E-05    14   0.457E-02
  14 F= -.13772709E+01 E0= -.13399486E+01  d E =0.317150E+02
 curvature:   0.00 expect dE=-0.123E-03 dE for cont linesearch -0.234E-04
 ZBRENT: bisectioning
 opt :   0.0004  next Energy=    -1.377283 (dE= 0.317E+02)
 bond charge predicted
       N       E                     dE             d eps       ncg     rms          rms(c)
RMM:   1    -0.137727785561E+01    0.36902E-04   -0.37406E-06    12   0.261E-02    0.545E-03
RMM:   2    -0.137728029520E+01   -0.24396E-05   -0.37802E-07     5   0.159E-02
  15 F= -.13772803E+01 E0= -.13399578E+01  d E =0.317150E+02
 curvature:   0.00 expect dE=-0.612E-04 dE for cont linesearch -0.114E-04
 ZBRENT: bisectioning
 opt :   0.0002  next Energy=    -1.377286 (dE= 0.317E+02)
 bond charge predicted
       N       E                     dE             d eps       ncg     rms          rms(c)
RMM:   1    -0.137728535378E+01   -0.74982E-05   -0.11124E-06     5   0.170E-02    0.279E-02
RMM:   2    -0.137953960802E+01   -0.22543E-02   -0.14440E-04    16   0.121E-01    0.104E+00
RMM:   3    -0.137762913829E+01    0.19105E-02   -0.30452E-04    20   0.231E-01    0.506E-02
RMM:   4    -0.137732050782E+01    0.30863E-03   -0.15263E-04    18   0.130E-01    0.224E-02
RMM:   5    -0.137729968846E+01    0.20819E-04   -0.21945E-05    16   0.651E-02
  16 F= -.13772997E+01 E0= -.13399722E+01  d E =0.317150E+02
 curvature:   0.00 expect dE=-0.310E-04 dE for cont linesearch -0.589E-05
 ZBRENT: bisectioning
 opt :   0.0001  next Energy=    -1.377303 (dE= 0.317E+02)
 bond charge predicted
       N       E                     dE             d eps       ncg     rms          rms(c)
RMM:   1    -0.137728821159E+01    0.32296E-04   -0.58242E-06    13   0.329E-02    0.905E-03
RMM:   2    -0.137741714584E+01   -0.12893E-03   -0.10410E-05    12   0.299E-02    0.249E-01
RMM:   3    -0.137732120554E+01    0.95940E-04   -0.17501E-05    16   0.585E-02
  17 F= -.13773212E+01 E0= -.13400011E+01  d E =0.317150E+02
 curvature:   0.00 expect dE=-0.154E-04 dE for cont linesearch -0.293E-05
 ZBRENT: bisectioning
 opt :   0.0000  next Energy=    -1.377323 (dE= 0.317E+02)
 bond charge predicted
       N       E                     dE             d eps       ncg     rms          rms(c)
RMM:   1    -0.137729080169E+01    0.12634E-03   -0.89392E-06    14   0.374E-02    0.762E-03
RMM:   2    -0.137733886358E+01   -0.48062E-04   -0.35377E-06    10   0.263E-02
  18 F= -.13773389E+01 E0= -.13400214E+01  d E =0.317150E+02
 curvature:   0.00 expect dE=-0.766E-05 dE for cont linesearch -0.146E-05
 ZBRENT: bisectioning
 opt :   0.0000  next Energy=    -1.377340 (dE= 0.317E+02)
 bond charge predicted
       N       E                     dE             d eps       ncg     rms          rms(c)
RMM:   1    -0.137729761640E+01   -0.68147E-05   -0.29572E-06    14   0.256E-02    0.869E-03
RMM:   2    -0.137736668641E+01   -0.69070E-04   -0.45679E-06    11   0.285E-02
  19 F= -.13773667E+01 E0= -.13400560E+01  d E =0.317149E+02
 curvature:   0.00 expect dE=-0.383E-05 dE for cont linesearch -0.729E-06
 ZBRENT:  can not reach accuracy
 opt :   0.0000  next Energy=     0.000000 (dE= 0.331E+02)
 bond charge predicted
       N       E                     dE             d eps       ncg     rms          rms(c)
RMM:   1    -0.137731747688E+01   -0.19860E-04   -0.90177E-06    12   0.393E-02    0.271E-02
RMM:   2    -0.137945342427E+01   -0.21359E-02   -0.13276E-04    16   0.128E-01    0.101E+00
RMM:   3    -0.137765272465E+01    0.18007E-02   -0.29510E-04    20   0.222E-01    0.421E-02
RMM:   4    -0.137732162445E+01    0.33110E-03   -0.16443E-04    18   0.131E-01    0.250E-02
RMM:   5    -0.137731406311E+01    0.75613E-05   -0.21653E-05    16   0.648E-02
  20 F= -.13773141E+01 E0= -.13399852E+01  d E =0.317150E+02
 curvature:   0.00 expect dE= 0.365-308 dE for cont linesearch  0.697-309
 ZBRENT:  accuracy reached
 opt :   0.0000  next Energy=     0.000000 (dE= 0.331E+02)
 bond charge predicted
       N       E                     dE             d eps       ncg     rms          rms(c)
RMM:   1    -0.137729133499E+01    0.30289E-04   -0.66346E-06    13   0.341E-02    0.103E-02
RMM:   2    -0.137734017192E+01   -0.48837E-04   -0.28000E-06     8   0.199E-02
  21 F= -.13773402E+01 E0= -.13400274E+01  d E =0.317150E+02
 curvature:   0.00 expect dE= 0.365-308 dE for cont linesearch  0.695-309
 ZBRENT:  accuracy reached
 opt :   0.0000  next Energy=     0.000000 (dE= 0.331E+02)
 bond charge predicted
       N       E                     dE             d eps       ncg     rms          rms(c)
RMM:   1    -0.137730470139E+01   -0.13366E-04   -0.78578E-06    15   0.376E-02    0.265E-02
RMM:   2    -0.137928616595E+01   -0.19815E-02   -0.13253E-04    16   0.125E-01    0.974E-01
RMM:   3    -0.137762252937E+01    0.16636E-02   -0.27237E-04    20   0.217E-01    0.445E-02
RMM:   4    -0.137732180220E+01    0.30073E-03   -0.14677E-04    18   0.127E-01    0.218E-02
RMM:   5    -0.137730775367E+01    0.14049E-04   -0.20110E-05    16   0.624E-02
  22 F= -.13773078E+01 E0= -.13399818E+01  d E =0.317150E+02
 curvature:   0.00 expect dE= 0.365-308 dE for cont linesearch  0.695-309
 ZBRENT:  accuracy reached
 opt :   0.0000  next Energy=     0.000000 (dE= 0.331E+02)
 bond charge predicted
       N       E                     dE             d eps       ncg     rms          rms(c)
RMM:   1    -0.137729130106E+01    0.30501E-04   -0.57301E-06    13   0.321E-02    0.810E-03
RMM:   2    -0.137732635322E+01   -0.35052E-04   -0.22544E-06     8   0.179E-02
  23 F= -.13773264E+01 E0= -.13400092E+01  d E =0.317150E+02
 curvature:   0.00 expect dE= 0.365-308 dE for cont linesearch  0.696-309
 ZBRENT:  accuracy reached
 opt :   0.0000  next Energy=     0.000000 (dE= 0.331E+02)
 bond charge predicted
       N       E                     dE             d eps       ncg     rms          rms(c)
RMM:   1    -0.137730169560E+01   -0.10395E-04   -0.53105E-06    11   0.323E-02    0.197E-02
RMM:   2    -0.137838732054E+01   -0.10856E-02   -0.73262E-05    16   0.889E-02    0.723E-01
RMM:   3    -0.137749684368E+01    0.89048E-03   -0.14873E-04    18   0.165E-01    0.323E-02
RMM:   4    -0.137730784220E+01    0.18900E-03   -0.82597E-05    18   0.976E-02    0.171E-02
RMM:   5    -0.137730105033E+01    0.67919E-05   -0.11239E-05    13   0.476E-02
  24 F= -.13773011E+01 E0= -.13399747E+01  d E =0.317150E+02
 curvature:   0.00 expect dE= 0.365-308 dE for cont linesearch  0.695-309
 ZBRENT:  accuracy reached
 opt :   0.0000  next Energy=     0.000000 (dE= 0.331E+02)
 bond charge predicted
       N       E                     dE             d eps       ncg     rms          rms(c)
RMM:   1    -0.137729092925E+01    0.16913E-04   -0.35208E-06    13   0.264E-02    0.707E-03
RMM:   2    -0.137732790726E+01   -0.36978E-04   -0.33272E-06     9   0.204E-02
  25 F= -.13773279E+01 E0= -.13400114E+01  d E =0.317150E+02
 curvature:   0.00 expect dE= 0.365-308 dE for cont linesearch  0.695-309
 ZBRENT:  accuracy reached
 opt :   0.0000  next Energy=     0.000000 (dE= 0.331E+02)
 bond charge predicted
       N       E                     dE             d eps       ncg     rms          rms(c)
RMM:   1    -0.137730112923E+01   -0.10200E-04   -0.54872E-06    12   0.336E-02    0.161E-02
RMM:   2    -0.137799198037E+01   -0.69085E-03   -0.46358E-05    16   0.730E-02    0.579E-01
RMM:   3    -0.137742589796E+01    0.56608E-03   -0.91844E-05    18   0.130E-01    0.262E-02
RMM:   4    -0.137730125146E+01    0.12465E-03   -0.50970E-05    17   0.783E-02    0.140E-02
RMM:   5    -0.137729789603E+01    0.33554E-05   -0.74984E-06    13   0.383E-02
  26 F= -.13772979E+01 E0= -.13399721E+01  d E =0.317150E+02
 curvature:   0.00 expect dE= 0.365-308 dE for cont linesearch  0.695-309
 ZBRENT:  accuracy reached
 opt :   0.0000  next Energy=     0.000000 (dE= 0.331E+02)
 bond charge predicted
       N       E                     dE             d eps       ncg     rms          rms(c)
RMM:   1    -0.137729070060E+01    0.10551E-04   -0.18344E-06     9   0.211E-02    0.603E-03
RMM:   2    -0.137731924616E+01   -0.28546E-04   -0.32870E-06    11   0.228E-02
  27 F= -.13773192E+01 E0= -.13400006E+01  d E =0.317150E+02
 curvature:   0.00 expect dE= 0.365-308 dE for cont linesearch  0.695-309
 ZBRENT:  accuracy reached
 opt :   0.0000  next Energy=     0.000000 (dE= 0.331E+02)
 bond charge predicted
       N       E                     dE             d eps       ncg     rms          rms(c)
RMM:   1    -0.137729817109E+01   -0.74705E-05   -0.42102E-06    14   0.309E-02    0.138E-02
RMM:   2    -0.137780342324E+01   -0.50525E-03   -0.32797E-05    15   0.631E-02    0.495E-01
RMM:   3    -0.137739329410E+01    0.41013E-03   -0.63828E-05    16   0.110E-01    0.222E-02
RMM:   4    -0.137729820766E+01    0.95086E-04   -0.34794E-05    14   0.660E-02
  28 F= -.13772982E+01 E0= -.13399737E+01  d E =0.317150E+02
 curvature:   0.00 expect dE= 0.365-308 dE for cont linesearch  0.695-309
 ZBRENT:  accuracy reached
 opt :   0.0000  next Energy=     0.000000 (dE= 0.331E+02)
 bond charge predicted
       N       E                     dE             d eps       ncg     rms          rms(c)
RMM:   1    -0.137729593746E+01    0.97357E-04   -0.53216E-06    13   0.338E-02    0.360E-03
RMM:   2    -0.137729082572E+01    0.51117E-05   -0.80786E-07     6   0.188E-02
  29 F= -.13772908E+01 E0= -.13399670E+01  d E =0.317150E+02
 curvature:   0.00 expect dE= 0.365-308 dE for cont linesearch  0.695-309
 ZBRENT:  accuracy reached
 opt :   0.0000  next Energy=     0.000000 (dE= 0.331E+02)
 bond charge predicted
       N       E                     dE             d eps       ncg     rms          rms(c)
RMM:   1    -0.137729351643E+01    0.24210E-05    0.14235-226     2   0.144E-02    0.321E-02
RMM:   2    -0.138049542592E+01   -0.32019E-02   -0.18424E-04    17   0.141E-01    0.123E+00
RMM:   3    -0.137772703645E+01    0.27684E-02   -0.42883E-04    22   0.265E-01    0.513E-02
RMM:   4    -0.137733636981E+01    0.39067E-03   -0.22726E-04    18   0.153E-01    0.283E-02
RMM:   5    -0.137731958817E+01    0.16782E-04   -0.30468E-05    16   0.752E-02
  30 F= -.13773196E+01 E0= -.13399890E+01  d E =0.317150E+02
 curvature:   0.00 expect dE= 0.364-308 dE for cont linesearch  0.695-309
 ZBRENT:  accuracy reached
 opt :   0.0000  next Energy=     0.000000 (dE= 0.331E+02)
 bond charge predicted
       N       E                     dE             d eps       ncg     rms          rms(c)
RMM:   1    -0.137729163473E+01    0.44735E-04   -0.94039E-06    14   0.398E-02    0.103E-02
RMM:   2    -0.137733448442E+01   -0.42850E-04   -0.28188E-06     8   0.204E-02
  31 F= -.13773345E+01 E0= -.13400202E+01  d E =0.317150E+02
 curvature:   0.00 expect dE= 0.365-308 dE for cont linesearch  0.695-309
 ZBRENT:  accuracy reached
 opt :   0.0000  next Energy=     0.000000 (dE= 0.331E+02)
 bond charge predicted
       N       E                     dE             d eps       ncg     rms          rms(c)
RMM:   1    -0.137730454396E+01   -0.12909E-04   -0.77385E-06    15   0.378E-02    0.273E-02
RMM:   2    -0.137944570954E+01   -0.21412E-02   -0.14433E-04    16   0.130E-01    0.101E+00
RMM:   3    -0.137764211925E+01    0.18036E-02   -0.29390E-04    20   0.226E-01    0.462E-02
RMM:   4    -0.137732360991E+01    0.31851E-03   -0.15686E-04    18   0.130E-01    0.229E-02
RMM:   5    -0.137730928148E+01    0.14328E-04   -0.21347E-05    16   0.646E-02
  32 F= -.13773093E+01 E0= -.13399830E+01  d E =0.317150E+02
 curvature:   0.00 expect dE= 0.365-308 dE for cont linesearch  0.695-309
 ZBRENT:  accuracy reached
 opt :   0.0000  next Energy=     0.000000 (dE= 0.331E+02)
 bond charge predicted
       N       E                     dE             d eps       ncg     rms          rms(c)
RMM:   1    -0.137729130752E+01    0.32302E-04   -0.61634E-06    13   0.330E-02    0.882E-03
RMM:   2    -0.137734456210E+01   -0.53255E-04   -0.30219E-06     8   0.206E-02
  33 F= -.13773446E+01 E0= -.13400310E+01  d E =0.317150E+02
 curvature:   0.00 expect dE= 0.365-308 dE for cont linesearch  0.696-309
 ZBRENT:  accuracy reached
 opt :   0.0000  next Energy=     0.000000 (dE= 0.331E+02)
 bond charge predicted
       N       E                     dE             d eps       ncg     rms          rms(c)
RMM:   1    -0.137730643470E+01   -0.15127E-04   -0.76042E-06    13   0.369E-02    0.193E-02
RMM:   2    -0.137829193747E+01   -0.98550E-03   -0.67984E-05    16   0.887E-02    0.691E-01
RMM:   3    -0.137748455698E+01    0.80738E-03   -0.13612E-04    18   0.157E-01    0.318E-02
RMM:   4    -0.137730609494E+01    0.17846E-03   -0.77112E-05    18   0.947E-02    0.170E-02
RMM:   5    -0.137730082955E+01    0.52654E-05   -0.10511E-05    13   0.461E-02
  34 F= -.13773008E+01 E0= -.13399753E+01  d E =0.317150E+02
 curvature:   0.00 expect dE= 0.365-308 dE for cont linesearch  0.695-309
 ZBRENT:  accuracy reached
 opt :   0.0000  next Energy=     0.000000 (dE= 0.331E+02)
 bond charge predicted
       N       E                     dE             d eps       ncg     rms          rms(c)
RMM:   1    -0.137729082925E+01    0.15266E-04   -0.31080E-06    12   0.253E-02    0.751E-03
RMM:   2    -0.137734109389E+01   -0.50265E-04   -0.43944E-06    10   0.247E-02
  35 F= -.13773411E+01 E0= -.13400265E+01  d E =0.317150E+02
 curvature:   0.00 expect dE= 0.365-308 dE for cont linesearch  0.695-309
 ZBRENT:  accuracy reached
 opt :   0.0000  next Energy=     0.000000 (dE= 0.331E+02)
 bond charge predicted
       N       E                     dE             d eps       ncg     rms          rms(c)
RMM:   1    -0.137730369567E+01   -0.12866E-04   -0.71044E-06    13   0.381E-02    0.168E-02
RMM:   2    -0.137802486887E+01   -0.72117E-03   -0.48084E-05    16   0.757E-02    0.592E-01
RMM:   3    -0.137743378220E+01    0.59109E-03   -0.96765E-05    18   0.133E-01    0.277E-02
RMM:   4    -0.137730180654E+01    0.13198E-03   -0.54403E-05    17   0.809E-02    0.146E-02
RMM:   5    -0.137729831994E+01    0.34866E-05   -0.79221E-06    13   0.393E-02
  36 F= -.13772983E+01 E0= -.13399723E+01  d E =0.317150E+02
 curvature:   0.00 expect dE= 0.365-308 dE for cont linesearch  0.695-309
 ZBRENT:  accuracy reached
 opt :   0.0000  next Energy=     0.000000 (dE= 0.331E+02)
 bond charge predicted
       N       E                     dE             d eps       ncg     rms          rms(c)
RMM:   1    -0.137729069357E+01    0.11113E-04   -0.20759E-06    10   0.216E-02    0.633E-03
RMM:   2    -0.137732263534E+01   -0.31942E-04   -0.30939E-06    10   0.219E-02
  37 F= -.13773226E+01 E0= -.13400047E+01  d E =0.317150E+02
 curvature:   0.00 expect dE= 0.365-308 dE for cont linesearch  0.695-309
 ZBRENT:  accuracy reached
 opt :   0.0000  next Energy=     0.000000 (dE= 0.331E+02)
 bond charge predicted
       N       E                     dE             d eps       ncg     rms          rms(c)
RMM:   1    -0.137729897893E+01   -0.82854E-05   -0.44913E-06    13   0.317E-02    0.142E-02
RMM:   2    -0.137782637271E+01   -0.52739E-03   -0.34645E-05    15   0.643E-02    0.506E-01
RMM:   3    -0.137739775606E+01    0.42862E-03   -0.67404E-05    16   0.113E-01    0.231E-02
RMM:   4    -0.137729853574E+01    0.99220E-04   -0.36989E-05    15   0.676E-02
  38 F= -.13772985E+01 E0= -.13399739E+01  d E =0.317150E+02
 curvature:   0.00 expect dE= 0.365-308 dE for cont linesearch  0.695-309
 ZBRENT:  accuracy reached
 opt :   0.0000  next Energy=     0.000000 (dE= 0.331E+02)
 bond charge predicted
       N       E                     dE             d eps       ncg     rms          rms(c)
RMM:   1    -0.137729623440E+01    0.10152E-03   -0.55689E-06    13   0.341E-02    0.383E-03
RMM:   2    -0.137729087826E+01    0.53561E-05   -0.10110E-06     7   0.187E-02
  39 F= -.13772909E+01 E0= -.13399669E+01  d E =0.317150E+02
 curvature:   0.00 expect dE= 0.365-308 dE for cont linesearch  0.695-309
 ZBRENT:  accuracy reached
 opt :   0.0000  next Energy=     0.000000 (dE= 0.331E+02)
 bond charge predicted
       N       E                     dE             d eps       ncg     rms          rms(c)
RMM:   1    -0.137729171045E+01    0.45239E-05    0.10091-226     2   0.134E-02    0.146E-02
RMM:   2    -0.137796232254E+01   -0.67061E-03   -0.35433E-05    16   0.597E-02    0.566E-01
RMM:   3    -0.137741427169E+01    0.54805E-03   -0.83366E-05    17   0.123E-01    0.221E-02
RMM:   4    -0.137729911521E+01    0.11516E-03   -0.46784E-05    16   0.744E-02    0.140E-02
RMM:   5    -0.137729817763E+01    0.93758E-06   -0.67832E-06    13   0.369E-02
  40 F= -.13772982E+01 E0= -.13399717E+01  d E =0.317150E+02
 curvature:   0.00 expect dE= 0.365-308 dE for cont linesearch  0.695-309
 ZBRENT:  accuracy reached
 opt :   0.0000  next Energy=     0.000000 (dE= 0.331E+02)
 bond charge predicted
       N       E                     dE             d eps       ncg     rms          rms(c)
RMM:   1    -0.137729062494E+01    0.84903E-05   -0.19010E-06     9   0.211E-02    0.596E-03
RMM:   2    -0.137730771979E+01   -0.17095E-04   -0.20903E-06     9   0.191E-02
  41 F= -.13773077E+01 E0= -.13399865E+01  d E =0.317150E+02
 curvature:   0.00 expect dE= 0.365-308 dE for cont linesearch  0.695-309
 ZBRENT:  accuracy reached
 opt :   0.0000  next Energy=     0.000000 (dE= 0.331E+02)
 bond charge predicted
       N       E                     dE             d eps       ncg     rms          rms(c)
RMM:   1    -0.137729567581E+01   -0.50509E-05   -0.27306E-06    12   0.254E-02    0.162E-02
RMM:   2    -0.137806212869E+01   -0.76645E-03   -0.49770E-05    16   0.747E-02    0.607E-01
RMM:   3    -0.137743249421E+01    0.62963E-03   -0.99936E-05    18   0.136E-01    0.265E-02
RMM:   4    -0.137730271654E+01    0.12978E-03   -0.54196E-05    17   0.813E-02    0.136E-02
RMM:   5    -0.137729728990E+01    0.54266E-05   -0.78595E-06    13   0.392E-02
  42 F= -.13772973E+01 E0= -.13399701E+01  d E =0.317150E+02
 curvature:   0.00 expect dE= 0.365-308 dE for cont linesearch  0.695-309
 ZBRENT:  accuracy reached
 opt :   0.0000  next Energy=     0.000000 (dE= 0.331E+02)
 bond charge predicted
       N       E                     dE             d eps       ncg     rms          rms(c)
RMM:   1    -0.137729070160E+01    0.12015E-04   -0.22274E-06    10   0.217E-02    0.507E-03
RMM:   2    -0.137730460623E+01   -0.13905E-04   -0.11701E-06     6   0.167E-02
  43 F= -.13773046E+01 E0= -.13399832E+01  d E =0.317150E+02
 curvature:   0.00 expect dE= 0.365-308 dE for cont linesearch  0.695-309
 ZBRENT:  accuracy reached
 opt :   0.0000  next Energy=     0.000000 (dE= 0.331E+02)
 bond charge predicted
       N       E                     dE             d eps       ncg     rms          rms(c)
RMM:   1    -0.137729452279E+01   -0.38212E-05   -0.17462E-06     9   0.215E-02    0.125E-02
RMM:   2    -0.137774224312E+01   -0.44772E-03   -0.30866E-05    15   0.578E-02    0.465E-01
RMM:   3    -0.137738229831E+01    0.35994E-03   -0.55654E-05    16   0.105E-01    0.196E-02
RMM:   4    -0.137729720860E+01    0.85090E-04   -0.29013E-05    14   0.611E-02
  44 F= -.13772972E+01 E0= -.13399730E+01  d E =0.317150E+02
 curvature:   0.00 expect dE= 0.365-308 dE for cont linesearch  0.695-309
 ZBRENT:  accuracy reached
 opt :   0.0000  next Energy=     0.000000 (dE= 0.331E+02)
 bond charge predicted
[...]
RMM:  33     0.454891211025E+03    0.28850E+00   -0.59516E-01    28   0.463E+00    0.163E+01
RMM:  34     0.457116483682E+03    0.22253E+01   -0.37435E+00    32   0.978E+00    0.161E+01
RMM:  35     0.456073418673E+03   -0.10431E+01    0.44335E-01    23   0.992E+00    0.161E+01
RMM:  36     0.455745938117E+03   -0.32748E+00   -0.55787E-01    31   0.425E+00    0.162E+01
RMM:  37     0.456013606965E+03    0.26767E+00    0.80780E-02    22   0.420E+00    0.162E+01
RMM:  38     0.455039485791E+03   -0.97412E+00   -0.56743E-01    32   0.425E+00    0.165E+01
RMM:  39     0.453388204871E+03   -0.16513E+01   -0.56585E-01    27   0.593E+00    0.171E+01
RMM:  40     0.453482110392E+03    0.93906E-01   -0.57358E-01    30   0.520E+00    0.176E+01
RMM:  41     0.453851267950E+03    0.36916E+00   -0.99595E-01    27   0.878E+00    0.167E+01
RMM:  42     0.453545891388E+03   -0.30538E+00   -0.22905E-04    24   0.539E+00    0.166E+01
RMM:  43     0.453008598009E+03   -0.53729E+00   -0.26523E-01    28   0.346E+00    0.164E+01
RMM:  44     0.451004724032E+03   -0.20039E+01   -0.72409E-01    30   0.491E+00    0.166E+01
RMM:  45     0.452421183747E+03    0.14165E+01   -0.29666E-02    25   0.563E+00    0.166E+01
RMM:  46     0.451028231811E+03   -0.13930E+01   -0.66572E-01    27   0.601E+00    0.164E+01
RMM:  47     0.450746154842E+03   -0.28208E+00   -0.55086E-01    28   0.629E+00    0.168E+01
RMM:  48     0.444690084048E+03   -0.60561E+01   -0.10092E+01    30   0.115E+01    0.196E+01
RMM:  49     0.444585392678E+03   -0.10469E+00    0.21395E+00    23   0.164E+01    0.196E+01
RMM:  50     0.444425950186E+03   -0.15944E+00   -0.14716E+00    26   0.556E+00    0.196E+01
RMM:  51     0.443417235003E+03   -0.10087E+01   -0.49305E-01    31   0.464E+00    0.194E+01
RMM:  52     0.232018979803E+03   -0.21140E+03   -0.16576E+02    32   0.674E+01    0.431E+01
RMM:  53     0.219283802426E+03   -0.12735E+02   -0.47413E+00    28   0.438E+01    0.447E+01
RMM:  54     0.229145254723E+03    0.98615E+01   -0.57375E+00    29   0.314E+01    0.441E+01
RMM:  55     0.228317461182E+03   -0.82779E+00   -0.75830E+00    30   0.226E+01    0.446E+01
RMM:  56     0.225758748370E+03   -0.25587E+01   -0.79468E+00    32   0.176E+01    0.453E+01
RMM:  57     0.206198897356E+03   -0.19560E+02   -0.47635E+00    30   0.299E+01    0.428E+01
RMM:  58     0.174617035652E+03   -0.31582E+02   -0.19989E+02    27   0.123E+02    0.451E+01
RMM:  59     0.182406023804E+03    0.77890E+01   -0.37750E+00    24   0.642E+01    0.456E+01
RMM:  60     0.181131267344E+03   -0.12748E+01   -0.82965E+00    31   0.259E+01
   2 F= 0.18113127E+03 E0= 0.18112577E+03  d E =0.183442E+03
 trial-energy change:  183.442149  1 .order -855.619142-1615.329750  -95.908535
 step:   1.0631(harm=  1.0631)  dis= 2.96766  next Energy=  -860.956981 (dE=-0.859E+03)
 bond charge predicted
       N       E                     dE             d eps       ncg     rms          rms(c)
RMM:   1     0.154470639508E+03   -0.27935E+02    0.78427E+01    24   0.348E+02    0.491E+01
RMM:   2     0.301430302815E+03    0.14696E+03   -0.14197E+02    30   0.137E+02    0.272E+01
RMM:   3     0.343950340760E+03    0.42520E+02   -0.16645E+02    31   0.125E+02    0.144E+01
RMM:   4     0.359701997229E+03    0.15752E+02    0.91794E+01    27   0.838E+01    0.924E+00
RMM:   5     0.359760324849E+03    0.58328E-01   -0.74007E+00    31   0.451E+01    0.573E+00
RMM:   6     0.363940384070E+03    0.41801E+01    0.63839E+00    23   0.344E+01    0.426E+00
RMM:   7     0.364023293023E+03    0.82909E-01   -0.42019E+00    35   0.166E+01    0.286E+00
RMM:   8     0.364036450142E+03    0.13157E-01   -0.13401E+00    34   0.103E+01    0.265E+00
RMM:   9     0.363913094001E+03   -0.12336E+00   -0.43991E-01    30   0.912E+00    0.522E+00
RMM:  10     0.363220357961E+03   -0.69274E+00   -0.61943E-01    32   0.555E+00    0.643E+00
RMM:  11     0.363808482969E+03    0.58813E+00   -0.44463E-01    34   0.447E+00    0.587E+00
RMM:  12     0.362841726756E+03   -0.96676E+00   -0.55853E-01    33   0.547E+00    0.466E+00
RMM:  13     0.361660700477E+03   -0.11810E+01   -0.34186E-01    32   0.672E+00    0.485E+00
RMM:  14     0.362302205337E+03    0.64150E+00   -0.25457E-02    26   0.487E+00    0.461E+00
RMM:  15     0.362234545631E+03   -0.67660E-01    0.21598E-03    26   0.283E+00    0.462E+00
RMM:  16     0.362341238282E+03    0.10669E+00   -0.10948E-02    28   0.203E+00    0.458E+00
RMM:  17     0.362532965739E+03    0.19173E+00   -0.11874E-02    31   0.117E+00    0.456E+00
RMM:  18     0.362104620991E+03   -0.42834E+00   -0.32058E+00    30   0.671E+00    0.630E+00
RMM:  19     0.362584735556E+03    0.48011E+00    0.25831E-01    24   0.718E+00    0.617E+00
RMM:  20     0.363321662612E+03    0.73693E+00   -0.18075E-01    33   0.307E+00    0.610E+00
RMM:  21     0.363354269215E+03    0.32607E-01   -0.87521E-02    29   0.205E+00    0.610E+00
RMM:  22     0.363353294206E+03   -0.97501E-03   -0.19896E-01    31   0.142E+00    0.610E+00
RMM:  23     0.364009761687E+03    0.65647E+00   -0.97625E-02    33   0.178E+00    0.204E+00
RMM:  24     0.363995829687E+03   -0.13932E-01   -0.96557E-02    34   0.259E+00    0.212E+00
RMM:  25     0.363933415924E+03   -0.62414E-01   -0.40588E-02    32   0.234E+00    0.277E+00
RMM:  26     0.363843708356E+03   -0.89708E-01   -0.23631E-01    33   0.350E+00    0.378E+00
RMM:  27     0.363837522523E+03   -0.61858E-02   -0.36275E-02    31   0.343E+00    0.393E+00
RMM:  28     0.363901179849E+03    0.63657E-01   -0.19393E-01    33   0.299E+00    0.380E+00
RMM:  29     0.363918512268E+03    0.17332E-01   -0.10930E-02    29   0.268E+00    0.338E+00
RMM:  30     0.363643576606E+03   -0.27494E+00   -0.34838E-02    32   0.222E+00    0.551E+00
RMM:  31     0.363669002985E+03    0.25426E-01   -0.24730E-02    33   0.144E+00    0.549E+00
RMM:  32     0.363451559078E+03   -0.21744E+00   -0.30643E-02    35   0.114E+00    0.577E+00
RMM:  33     0.363875669648E+03    0.42411E+00   -0.25960E-02    32   0.122E+00    0.424E+00
RMM:  34     0.363927508221E+03    0.51839E-01   -0.87161E-03    31   0.135E+00    0.343E+00
RMM:  35     0.363949730908E+03    0.22223E-01   -0.86252E-03    34   0.125E+00    0.291E+00
RMM:  36     0.363955360653E+03    0.56297E-02    0.76535E-04    33   0.107E+00    0.274E+00
RMM:  37     0.363986961554E+03    0.31601E-01   -0.80730E-03    35   0.770E-01    0.199E+00
RMM:  38     0.363979590060E+03   -0.73715E-02   -0.76524E-03    35   0.641E-01    0.218E+00
RMM:  39     0.363997311179E+03    0.17721E-01   -0.52387E-03    35   0.509E-01    0.162E+00
RMM:  40     0.363991535826E+03   -0.57754E-02   -0.59952E-03    34   0.525E-01    0.177E+00
RMM:  41     0.363999761021E+03    0.82252E-02   -0.11530E-02    35   0.556E-01    0.121E+00
RMM:  42     0.363998575298E+03   -0.11857E-02   -0.33257E-03    30   0.611E-01    0.118E+00
RMM:  43     0.363998652545E+03    0.77247E-04   -0.48835E-03    33   0.474E-01    0.119E+00
RMM:  44     0.363996214685E+03   -0.24379E-02   -0.29819E-03    30   0.320E-01    0.137E+00
RMM:  45     0.363997102891E+03    0.88821E-03   -0.54498E-03    32   0.331E-01    0.139E+00
RMM:  46     0.363972194263E+03   -0.24909E-01   -0.42260E-03    32   0.365E-01    0.223E+00
RMM:  47     0.363992617852E+03    0.20424E-01   -0.20295E-03    32   0.475E-01    0.168E+00
RMM:  48     0.363996476382E+03    0.38585E-02   -0.42827E-03    32   0.490E-01    0.125E+00
RMM:  49     0.363989863260E+03   -0.66131E-02   -0.47954E-03    33   0.562E-01    0.120E+00
RMM:  50     0.363956052478E+03   -0.33811E-01   -0.26111E-02    33   0.960E-01    0.139E+00
RMM:  51     0.363937569509E+03   -0.18483E-01   -0.75038E-03    34   0.120E+00    0.125E+00
RMM:  52     0.363790379136E+03   -0.14719E+00   -0.14480E-01    33   0.150E+00    0.286E+00
RMM:  53     0.363873880299E+03    0.83501E-01    0.29979E-02    28   0.169E+00    0.198E+00
RMM:  54     0.363895018770E+03    0.21138E-01   -0.36370E-03    28   0.882E-01    0.173E+00
RMM:  55     0.363914909827E+03    0.19891E-01    0.27364E-03    31   0.679E-01    0.146E+00
RMM:  56     0.363932869016E+03    0.17959E-01   -0.59840E-03    32   0.673E-01    0.156E+00
RMM:  57     0.363928944863E+03   -0.39242E-02   -0.19227E-03    34   0.928E-01    0.211E+00
RMM:  58     0.363967173981E+03    0.38229E-01   -0.61343E-03    33   0.104E+00    0.169E+00
RMM:  59     0.363995569576E+03    0.28396E-01   -0.72034E-03    30   0.104E+00    0.114E+00
RMM:  60     0.364002473873E+03    0.69043E-02    0.14871E-02    34   0.109E+00
   3 F= 0.36400247E+03 E0= 0.36407145E+03  d E =0.366313E+03
 curvature:  -0.53 expect dE=-0.485E-02 dE for cont linesearch -0.256E-02
 ZBRENT: interpolating
 opt :   1.0613  next Energy=   363.999983 (dE= 0.366E+03)
 bond charge predicted
       N       E                     dE             d eps       ncg     rms          rms(c)
RMM:   1     0.364016010324E+03    0.20441E-01    0.17416E-02    29   0.539E+00    0.828E-01
RMM:   2     0.363977605719E+03   -0.38405E-01   -0.30222E-02    32   0.178E+00    0.202E+00
RMM:   3     0.363972587673E+03   -0.50180E-02   -0.85031E-03    33   0.138E+00    0.201E+00
RMM:   4     0.364019994517E+03    0.47407E-01   -0.38951E-03    32   0.121E+00    0.279E-01
RMM:   5     0.364021675992E+03    0.16815E-02   -0.63209E-03    35   0.875E-01    0.157E-01
RMM:   6     0.364023175701E+03    0.14997E-02    0.49087E-03    30   0.658E-01    0.688E-02
RMM:   7     0.364022661952E+03   -0.51375E-03    0.33366E-05    37   0.481E-01    0.619E-02
RMM:   8     0.364022164315E+03   -0.49764E-03   -0.13458E-04    31   0.306E-01    0.364E-02
RMM:   9     0.364021822048E+03   -0.34227E-03    0.94558E-04    31   0.281E-01    0.190E-02
RMM:  10     0.364021338825E+03   -0.48322E-03    0.17933E-04    32   0.189E-01    0.101E-02
RMM:  11     0.364021121404E+03   -0.21742E-03    0.19506E-04    26   0.150E-01    0.106E-02
RMM:  12     0.364020882856E+03   -0.23855E-03    0.27448E-04    24   0.135E-01    0.698E-03
RMM:  13     0.364020595687E+03   -0.28717E-03    0.14630E-04    26   0.160E-01    0.641E-03
RMM:  14     0.364020523404E+03   -0.72283E-04    0.16885E-04    19   0.116E-01
   4 F= 0.36402052E+03 E0= 0.36409260E+03  d E =0.366331E+03
 curvature:  -0.52 expect dE=-0.832E-04 dE for cont linesearch -0.810E-04
 ZBRENT: interpolating
 opt :   1.0609  next Energy=   364.020425 (dE= 0.366E+03)
 bond charge predicted
       N       E                     dE             d eps       ncg     rms          rms(c)
RMM:   1     0.364017900253E+03   -0.26954E-02    0.20291E-03    29   0.125E+00    0.105E-01
RMM:   2     0.364019362289E+03    0.14620E-02    0.11569E-04    22   0.234E-01    0.679E-02
RMM:   3     0.364016987473E+03   -0.23748E-02   -0.67393E-04    33   0.213E-01    0.571E-01
RMM:   4     0.364020017153E+03    0.30297E-02   -0.47620E-04    33   0.206E-01    0.456E-02
RMM:   5     0.364020070862E+03    0.53709E-04    0.10172E-04    25   0.230E-01
   5 F= 0.36402007E+03 E0= 0.36409203E+03  d E =0.366331E+03
 curvature:  -0.63 expect dE=-0.547E-05 dE for cont linesearch -0.161E-05
 ZBRENT: interpolating
 opt :   1.0610  next Energy=   364.020069 (dE= 0.366E+03)
 bond charge predicted
       N       E                     dE             d eps       ncg     rms          rms(c)
RMM:   1     0.364020041367E+03    0.24215E-04   -0.23084E-04    30   0.298E-01    0.261E-02
RMM:   2     0.364019102939E+03   -0.93843E-03    0.27905E-05    21   0.170E-01    0.316E-01
RMM:   3     0.364019977007E+03    0.87407E-03   -0.36584E-04    25   0.180E-01    0.327E-02
RMM:   4     0.364020043018E+03    0.66011E-04    0.27410E-04    18   0.156E-01
   6 F= 0.36402004E+03 E0= 0.36409208E+03  d E =0.366331E+03
 curvature:  -0.56 expect dE=-0.119E-03 dE for cont linesearch -0.111E-03
 ZBRENT: interpolating
 opt :   1.0610  next Energy=   364.020071 (dE= 0.366E+03)
 bond charge predicted
       N       E                     dE             d eps       ncg     rms          rms(c)
RMM:   1     0.364020015135E+03    0.38128E-04    0.31756E-05    22   0.189E-01    0.160E-02
RMM:   2     0.364019949002E+03   -0.66133E-04   -0.45228E-05    23   0.135E-01
   7 F= 0.36401995E+03 E0= 0.36409262E+03  d E =0.366331E+03
 curvature:   0.00 expect dE=-0.874E-07 dE for cont linesearch -0.833E-07
 ZBRENT: interpolating
 opt :   1.0609  next Energy=   364.020071 (dE= 0.366E+03)
 bond charge predicted
       N       E                     dE             d eps       ncg     rms          rms(c)
RMM:   1     0.364020001824E+03   -0.13311E-04    0.33331E-05    15   0.888E-02    0.137E-02
RMM:   2     0.364019903256E+03   -0.98568E-04    0.13109E-05    12   0.696E-02
   8 F= 0.36401990E+03 E0= 0.36409273E+03  d E =0.366331E+03
 curvature:   0.00 expect dE=-0.167E-07 dE for cont linesearch -0.154E-07
 ZBRENT: interpolating
 opt :   1.0609  next Energy=   364.020071 (dE= 0.366E+03)
 bond charge predicted
       N       E                     dE             d eps       ncg     rms          rms(c)
RMM:   1     0.364019958809E+03   -0.43015E-04   -0.34255E-04    17   0.998E-02    0.164E-02
RMM:   2     0.364019954248E+03   -0.45613E-05    0.14028E-04    19   0.161E-01
   9 F= 0.36401995E+03 E0= 0.36409225E+03  d E =0.366331E+03
 curvature:   0.00 expect dE=-0.809E-08 dE for cont linesearch -0.776E-08
 ZBRENT: interpolating
 opt :   1.0609  next Energy=   364.020071 (dE= 0.366E+03)
 bond charge predicted
       N       E                     dE             d eps       ncg     rms          rms(c)
RMM:   1     0.364019955353E+03   -0.34564E-05    0.10077E-04    15   0.110E-01    0.409E-02
RMM:   2     0.364016834173E+03   -0.31212E-02   -0.26319E-04    21   0.106E-01    0.586E-01
RMM:   3     0.364019911348E+03    0.30772E-02   -0.48871E-04    27   0.197E-01    0.422E-02
RMM:   4     0.364019926134E+03    0.14786E-04   -0.17199E-05    23   0.202E-01
  10 F= 0.36401993E+03 E0= 0.36409196E+03  d E =0.366331E+03
 curvature:   0.00 expect dE=-0.935E-10 dE for cont linesearch -0.910E-10
 ZBRENT:  accuracy reached
 opt :   0.0000  next Energy=     0.000000 (dE= 0.231E+01)
 bond charge predicted
       N       E                     dE             d eps       ncg     rms          rms(c)
RMM:   1     0.954921684599E+02   -0.26853E+03   -0.29897E+02    38   0.166E+02    0.787E+01
RMM:   2     0.646010821718E+03    0.55052E+03   -0.24263E+02    33   0.130E+02    0.494E+01
RMM:   3     0.909182002961E+03    0.26317E+03   -0.13243E+03    34   0.279E+02    0.976E+00
RMM:   4     0.643204691147E+03   -0.26598E+03   -0.24726E+03    31   0.543E+02    0.155E+01
RMM:   5     0.261357889982E+03   -0.38185E+03   -0.32265E+03    31   0.746E+02    0.407E+01
RMM:   6     0.337276794225E+02   -0.22763E+03   -0.22792E+03    29   0.689E+02    0.496E+01
RMM:   7    -0.107030454477E+03   -0.14076E+03   -0.17642E+03    29   0.645E+02    0.602E+01
RMM:   8    -0.197598805773E+03   -0.90568E+02   -0.12281E+03    27   0.491E+02    0.668E+01
RMM:   9    -0.324180023805E+03   -0.12658E+03   -0.12984E+03    32   0.401E+02    0.766E+01
RMM:  10    -0.419672891285E+03   -0.95493E+02   -0.85899E+02    31   0.322E+02    0.829E+01
RMM:  11    -0.453050208942E+03   -0.33377E+02   -0.17983E+02    25   0.285E+02    0.834E+01
RMM:  12    -0.474572361110E+03   -0.21522E+02   -0.47688E+01    28   0.114E+02    0.835E+01
RMM:  13    -0.478052776755E+03   -0.34804E+01    0.65983E+00    25   0.651E+01    0.836E+01
RMM:  14    -0.478364693268E+03   -0.31192E+00    0.75670E+00    29   0.448E+01    0.834E+01
RMM:  15    -0.477547539230E+03    0.81715E+00    0.11314E+01    25   0.543E+01    0.836E+01
RMM:  16    -0.605257884688E+03   -0.12771E+03    0.13463E+01    27   0.837E+01    0.858E+01
RMM:  17    -0.627787158556E+03   -0.22529E+02   -0.79759E+01    22   0.750E+01    0.868E+01
RMM:  18    -0.627414852972E+03    0.37231E+00   -0.10483E+01    23   0.274E+01    0.875E+01
RMM:  19    -0.631110269727E+03   -0.36954E+01   -0.38349E-01    23   0.822E+00    0.881E+01
RMM:  20    -0.637235636229E+03   -0.61254E+01   -0.17644E-01    21   0.618E+00    0.888E+01
RMM:  21    -0.661921018152E+03   -0.24685E+02   -0.60232E-01    20   0.116E+01    0.902E+01
RMM:  22     0.101332440725E+07    0.10140E+07    0.50625E+06    32   0.104E+03    0.989E+01
RMM:  23    -0.107194936961E+04   -0.10144E+07   -0.27984E+03    30   0.827E+02    0.984E+01
RMM:  24    -0.173178806217E+05   -0.16246E+05    0.64649E+04    26   0.401E+03    0.882E+01
RMM:  25    -0.955795178822E+03    0.16362E+05   -0.15158E+03    32   0.168E+03    0.892E+01
RMM:  26    -0.123624025014E+04   -0.28045E+03   -0.46315E+03    31   0.162E+03    0.719E+01
RMM:  27    -0.308784100085E+05   -0.29642E+05    0.13534E+05    32   0.437E+04    0.684E+01
RMM:  28    -0.575086157812E+03    0.30303E+05    0.90446E+02    26   0.114E+03    0.800E+01
RMM:  29     0.328414946109E+01    0.57837E+03   -0.10845E+03    29   0.414E+02    0.806E+01
RMM:  30    -0.151049167138E+05   -0.15108E+05    0.54793E+03    25   0.671E+03    0.946E+01
RMM:  31    -0.105080535792E+05    0.45969E+04    0.16262E+03    30   0.665E+03    0.840E+01
RMM:  32    -0.548840285932E+04    0.50197E+04    0.16315E+04    27   0.629E+03    0.767E+01
RMM:  33    -0.478407955263E+03    0.50100E+04   -0.28522E+03    32   0.695E+02    0.791E+01
RMM:  34     0.495141996370E+05    0.49993E+05    0.74719E+04    29   0.120E+05    0.633E+01
RMM:  35    -0.172174304459E+03   -0.49686E+05   -0.33926E+03    32   0.834E+02    0.772E+01
RMM:  36    -0.856509044459E+02    0.86523E+02   -0.23791E+03    28   0.105E+03    0.827E+01
RMM:  37     0.212742466497E+04    0.22131E+04    0.45061E+04    21   0.874E+03    0.689E+01
RMM:  38    -0.120058022372E+04   -0.33280E+04   -0.17244E+03    27   0.929E+02    0.854E+01
RMM:  39     0.486341498271E+03    0.16869E+04   -0.13325E+03    28   0.758E+02    0.760E+01
RMM:  40     0.341483644227E+03   -0.14486E+03   -0.83533E+02    25   0.655E+02    0.786E+01
RMM:  41     0.819237246471E+03    0.47775E+03    0.21834E+02    21   0.102E+03    0.770E+01
RMM:  42     0.818512616412E+03   -0.72463E+00    0.14240E+03    26   0.875E+02    0.672E+01
RMM:  43     0.618604932390E+03   -0.19991E+03    0.30943E+03    20   0.247E+03    0.741E+01
RMM:  44     0.989246610939E+03    0.37064E+03   -0.45434E+02    25   0.695E+02    0.721E+01
RMM:  45     0.171876161127E+04    0.72952E+03   -0.54625E+02    23   0.981E+02    0.696E+01
RMM:  46     0.163494348496E+04   -0.83818E+02   -0.37777E+02    24   0.107E+03    0.684E+01
RMM:  47     0.661220840840E+02   -0.15688E+04   -0.20049E+03    30   0.743E+02    0.448E+01
RMM:  48     0.325537902682E+02   -0.33568E+02   -0.12214E+03    28   0.547E+02    0.568E+01
RMM:  49    -0.885326124329E+03   -0.91788E+03   -0.28895E+03    29   0.125E+03    0.713E+01
RMM:  50    -0.602173966236E+04   -0.51364E+04   -0.16540E+04    26   0.273E+03    0.833E+01
RMM:  51    -0.150210938458E+04    0.45196E+04   -0.98915E+03    29   0.245E+03    0.591E+01
RMM:  52     0.133941234083E+02    0.15155E+04   -0.25280E+03    31   0.743E+02    0.713E+01
RMM:  53    -0.121558060517E+02   -0.25550E+02   -0.58268E+02    30   0.221E+02    0.707E+01
RMM:  54     0.316624561279E+03    0.32878E+03   -0.93776E+02    28   0.410E+02    0.608E+01
RMM:  55     0.133639053478E+03   -0.18299E+03   -0.55168E+02    26   0.336E+02    0.628E+01
RMM:  56     0.439015605566E+03    0.30538E+03    0.24778E+02    25   0.456E+02    0.587E+01
RMM:  57    -0.467484861363E+02   -0.48576E+03   -0.64043E+02    30   0.418E+02    0.676E+01
RMM:  58     0.266719484105E+03    0.31347E+03   -0.16962E+03    30   0.705E+02    0.648E+01
RMM:  59     0.386628701292E+03    0.11991E+03   -0.14925E+03    25   0.956E+02    0.665E+01
RMM:  60    -0.653376585245E+02   -0.45197E+03   -0.61695E+02    29   0.243E+02
  11 F= -.65337659E+02 E0= -.65341524E+02  d E =-.630268E+02
 curvature:   0.00 expect dE= 0.913-302 dE for cont linesearch  0.909-302
 ZBRENT: fatal error in bracketing
     please rerun with smaller EDIFF, or copy CONTCAR
     to POSCAR and continue
