       N       E                     dE             d eps       ncg     rms          rms(c)
RMM:   1     0.332032435205E+03    0.33203E+03   -0.35273E+02    10   0.197E+02
RMM:   2     0.310960872072E+03   -0.21072E+02   -0.20120E+02    10   0.443E+01
RMM:   3     0.292212985663E+03   -0.18748E+02   -0.21780E+02    10   0.602E+01
RMM:   4     0.266893581895E+03   -0.25319E+02   -0.23912E+02    10   0.912E+01
RMM:   5     0.232519733535E+03   -0.34374E+02   -0.37125E+02    10   0.107E+02
RMM:   6     0.170730207459E+03   -0.61790E+02   -0.46431E+02    10   0.119E+02
RMM:   7     0.115324883629E+03   -0.55405E+02   -0.64549E+02    10   0.138E+02
RMM:   8     0.964283182091E+02   -0.18897E+02   -0.23861E+02    10   0.875E+01
RMM:   9     0.959368050953E+02   -0.49151E+00   -0.86048E+00    31   0.495E+01
RMM:  10     0.102347579971E+03    0.64108E+01    0.44756E+01    34   0.215E+01
RMM:  11     0.102690313542E+03    0.34273E+00   -0.14496E+00    34   0.557E+00
RMM:  12     0.102692887235E+03    0.25737E-02   -0.17224E-01    32   0.314E+00    0.198E+01
RMM:  13     0.138449118893E+03    0.35756E+02   -0.40815E+01    32   0.329E+01    0.122E+01
RMM:  14     0.162876405584E+03    0.24427E+02   -0.66503E+01    31   0.448E+01    0.424E+00
RMM:  15     0.161966353645E+03   -0.91005E+00   -0.61073E+01    33   0.286E+01    0.236E+00
RMM:  16     0.158562053696E+03   -0.34043E+01   -0.41142E+01    33   0.307E+01    0.209E+00
RMM:  17     0.155988467944E+03   -0.25736E+01   -0.26875E+01    35   0.284E+01    0.252E+00
RMM:  18     0.157206013675E+03    0.12175E+01    0.81859E+00    33   0.303E+01    0.240E+00
RMM:  19     0.158854384418E+03    0.16484E+01    0.16100E+01    36   0.223E+01    0.276E+00
RMM:  20     0.158787479585E+03   -0.66905E-01   -0.23749E+00    32   0.794E+00    0.329E+00
RMM:  21     0.158240712237E+03   -0.54677E+00   -0.65839E+00    32   0.186E+01    0.459E+00
RMM:  22     0.158328920991E+03    0.88209E-01    0.37036E-01    35   0.909E+00    0.483E+00
RMM:  23     0.158528422532E+03    0.19950E+00    0.12457E+00    34   0.652E+00    0.476E+00
RMM:  24     0.158147136199E+03   -0.38129E+00   -0.40060E+00    36   0.496E+00    0.538E+00
RMM:  25     0.157980333701E+03   -0.16680E+00   -0.18630E+00    33   0.679E+00    0.519E+00
RMM:  26     0.157240328705E+03   -0.74000E+00   -0.88413E+00    32   0.589E+00    0.434E+00
RMM:  27     0.155736185191E+03   -0.15041E+01   -0.16245E+01    26   0.964E+00    0.380E+00
RMM:  28     0.153553875723E+03   -0.21823E+01   -0.21894E+01    30   0.672E+00    0.378E+00
RMM:  29     0.154139990397E+03    0.58611E+00    0.47646E+00    27   0.160E+01    0.378E+00
RMM:  30     0.152935161799E+03   -0.12048E+01   -0.12400E+01    29   0.535E+00    0.378E+00
RMM:  31     0.153367913295E+03    0.43275E+00    0.25236E+00    26   0.125E+01    0.359E+00
RMM:  32     0.151259174540E+03   -0.21087E+01   -0.53241E+00    27   0.454E+00    0.378E+00
RMM:  33     0.145901962763E+03   -0.53572E+01   -0.38586E+00    26   0.510E+00    0.387E+00
RMM:  34     0.143006271800E+03   -0.28957E+01   -0.28191E+01    29   0.254E+01    0.438E+00
RMM:  35     0.141016510140E+03   -0.19898E+01   -0.20415E+01    26   0.127E+01    0.456E+00
RMM:  36     0.136252979272E+03   -0.47635E+01    0.17824E+00    23   0.174E+01    0.487E+00
RMM:  37     0.121230947874E+03   -0.15022E+02   -0.13801E+01    28   0.113E+01    0.654E+00
RMM:  38     0.872378332448E+02   -0.33993E+02   -0.29226E+02    26   0.503E+01    0.129E+01
RMM:  39     0.773559341269E+02   -0.98819E+01   -0.21356E+01    24   0.163E+01    0.152E+01
RMM:  40     0.371553287072E+02   -0.40201E+02    0.45691E+00    26   0.131E+01    0.224E+01
RMM:  41     0.378766975237E+02    0.72137E+00    0.11930E+01    28   0.734E+01    0.242E+01
RMM:  42     0.388762756809E+02    0.99958E+00    0.74237E+00    24   0.308E+01    0.238E+01
RMM:  43     0.386310176707E+02   -0.24526E+00   -0.11466E+00    26   0.955E+00    0.239E+01
RMM:  44     0.385755887510E+02   -0.55429E-01    0.13322E-01    24   0.309E+00    0.239E+01
RMM:  45     0.302361100461E+02   -0.83395E+01   -0.19402E-03    23   0.912E-01    0.220E+01
RMM:  46    -0.674152983055E+01   -0.36978E+02   -0.36498E+02    25   0.844E+01    0.263E+01
RMM:  47    -0.830052582840E+01   -0.15590E+01   -0.10194E+01    20   0.194E+01    0.270E+01
RMM:  48    -0.753749009372E+01    0.76304E+00   -0.62318E-01    20   0.582E+00    0.269E+01
RMM:  49    -0.745837389439E+01    0.79116E-01   -0.52616E-02    20   0.181E+00    0.269E+01
RMM:  50    -0.735696076407E+01    0.10141E+00   -0.92409E-03    16   0.700E-01    0.269E+01
RMM:  51    -0.747714133668E+01   -0.12018E+00   -0.21502E-04    14   0.188E-01    0.269E+01
RMM:  52    -0.666129131047E+01    0.81585E+00   -0.51100E-03    20   0.795E-01    0.268E+01
RMM:  53    -0.800858038744E+01   -0.13473E+01   -0.15677E-02    20   0.148E+00    0.270E+01
RMM:  54    -0.868127759853E+01   -0.67270E+00   -0.87265E-03    20   0.110E+00    0.271E+01
RMM:  55    -0.868913664228E+01   -0.78590E-02   -0.20522E-04    14   0.178E-01    0.271E+01
RMM:  56    -0.810234501887E+01    0.58679E+00   -0.27437E-03    20   0.576E-01    0.270E+01
RMM:  57    -0.218129210568E+01    0.59211E+01   -0.31392E-01    20   0.611E+00    0.258E+01
RMM:  58    -0.684694507446E+01   -0.46657E+01   -0.18015E-01    20   0.433E+00    0.260E+01
RMM:  59    -0.671137504789E+01    0.13557E+00   -0.22447E-03    22   0.608E-01    0.260E+01
RMM:  60    -0.231088121351E+01    0.44005E+01   -0.17187E-01    20   0.453E+00
   1 F= -.23108812E+01 E0= -.23147494E+01  d E =-.231088E+01
       N       E                     dE             d eps       ncg     rms          rms(c)
RMM:   1     0.115098296779E+03    0.12181E+03   -0.57633E+02    27   0.185E+02    0.646E+01
RMM:   2     0.482576925674E+03    0.36748E+03   -0.43947E+02    31   0.159E+02    0.381E+01
RMM:   3     0.620134171219E+03    0.13756E+03   -0.86272E+02    34   0.196E+02    0.154E+01
RMM:   4     0.581748606337E+03   -0.38386E+02   -0.67181E+02    30   0.182E+02    0.842E+00
RMM:   5     0.553822035993E+03   -0.27927E+02   -0.35899E+02    29   0.205E+02    0.756E+00
RMM:   6     0.516861517232E+03   -0.36961E+02   -0.29925E+02    32   0.127E+02    0.762E+00
RMM:   7     0.489032443390E+03   -0.27829E+02   -0.28608E+02    30   0.112E+02    0.883E+00
RMM:   8     0.453995179671E+03   -0.35037E+02   -0.30536E+02    32   0.113E+02    0.121E+01
RMM:   9     0.427065426492E+03   -0.26930E+02   -0.19035E+02    30   0.967E+01    0.161E+01
RMM:  10     0.419685360339E+03   -0.73801E+01   -0.54366E+01    26   0.827E+01    0.178E+01
RMM:  11     0.412212872323E+03   -0.74725E+01   -0.60677E+01    28   0.501E+01    0.194E+01
RMM:  12     0.411908279444E+03   -0.30459E+00   -0.11207E+01    27   0.372E+01    0.202E+01
RMM:  13     0.410611277724E+03   -0.12970E+01   -0.11787E+01    31   0.251E+01    0.208E+01
RMM:  14     0.416580177872E+03    0.59689E+01   -0.62630E+00    28   0.219E+01    0.205E+01
RMM:  15     0.432124101565E+03    0.15544E+02   -0.14215E+01    27   0.276E+01    0.203E+01
RMM:  16     0.439282849557E+03    0.71587E+01   -0.29612E+01    31   0.311E+01    0.211E+01
RMM:  17     0.445078089019E+03    0.57952E+01    0.26673E+00    22   0.323E+01    0.198E+01
RMM:  18     0.438216793245E+03   -0.68613E+01   -0.16137E+01    31   0.139E+01    0.211E+01
RMM:  19     0.445864239653E+03    0.76474E+01   -0.30693E+00    27   0.195E+01    0.192E+01
RMM:  20     0.451503222586E+03    0.56390E+01   -0.39709E+00    27   0.161E+01    0.173E+01
RMM:  21     0.450616222122E+03   -0.88700E+00   -0.16000E+00    24   0.124E+01    0.174E+01
RMM:  22     0.450289966283E+03   -0.32626E+00   -0.32723E+00    30   0.624E+00    0.173E+01
RMM:  23     0.450077335088E+03   -0.21263E+00   -0.84624E-01    29   0.681E+00    0.173E+01
RMM:  24     0.453050862220E+03    0.29735E+01   -0.52899E+00    28   0.108E+01    0.168E+01
RMM:  25     0.453319807467E+03    0.26895E+00   -0.22516E+00    28   0.129E+01    0.168E+01
RMM:  26     0.453010399339E+03   -0.30941E+00   -0.31040E+00    28   0.740E+00    0.170E+01
RMM:  27     0.453641319274E+03    0.63092E+00   -0.77366E-01    29   0.488E+00    0.168E+01
RMM:  28     0.454727963402E+03    0.10866E+01   -0.50584E-01    27   0.585E+00    0.165E+01
RMM:  29     0.454666640610E+03   -0.61323E-01   -0.10768E+01    30   0.115E+01    0.166E+01
RMM:  30     0.455151580350E+03    0.48494E+00    0.91385E-01    28   0.136E+01    0.166E+01
RMM:  31     0.454822573451E+03   -0.32901E+00   -0.48212E+00    27   0.798E+00    0.162E+01
RMM:  32     0.454602708926E+03   -0.21986E+00    0.28939E-01    27   0.741E+00    0.163E+01
RMM:  33     0.454891211025E+03    0.28850E+00   -0.59516E-01    28   0.463E+00    0.163E+01
RMM:  34     0.457116483682E+03    0.22253E+01   -0.37435E+00    32   0.978E+00    0.161E+01
RMM:  35     0.456073418673E+03   -0.10431E+01    0.44335E-01    23   0.992E+00    0.161E+01
RMM:  36     0.455745938117E+03   -0.32748E+00   -0.55787E-01    31   0.425E+00    0.162E+01
RMM:  37     0.456013606965E+03    0.26767E+00    0.80780E-02    22   0.420E+00    0.162E+01
RMM:  38     0.455039485791E+03   -0.97412E+00   -0.56743E-01    32   0.425E+00    0.165E+01
RMM:  39     0.453388204871E+03   -0.16513E+01   -0.56585E-01    27   0.593E+00    0.171E+01
RMM:  40     0.453482110392E+03    0.93906E-01   -0.57358E-01    30   0.520E+00    0.176E+01
RMM:  41     0.453851267950E+03    0.36916E+00   -0.99595E-01    27   0.878E+00    0.167E+01
RMM:  42     0.453545891388E+03   -0.30538E+00   -0.22905E-04    24   0.539E+00    0.166E+01
RMM:  43     0.453008598009E+03   -0.53729E+00   -0.26523E-01    28   0.346E+00    0.164E+01
RMM:  44     0.451004724032E+03   -0.20039E+01   -0.72409E-01    30   0.491E+00    0.166E+01
RMM:  45     0.452421183747E+03    0.14165E+01   -0.29666E-02    25   0.563E+00    0.166E+01
RMM:  46     0.451028231811E+03   -0.13930E+01   -0.66572E-01    27   0.601E+00    0.164E+01
RMM:  47     0.450746154842E+03   -0.28208E+00   -0.55086E-01    28   0.629E+00    0.168E+01
RMM:  48     0.444690084048E+03   -0.60561E+01   -0.10092E+01    30   0.115E+01    0.196E+01
RMM:  49     0.444585392678E+03   -0.10469E+00    0.21395E+00    23   0.164E+01    0.196E+01
RMM:  50     0.444425950186E+03   -0.15944E+00   -0.14716E+00    26   0.556E+00    0.196E+01
RMM:  51     0.443417235003E+03   -0.10087E+01   -0.49305E-01    31   0.464E+00    0.194E+01
RMM:  52     0.232018979803E+03   -0.21140E+03   -0.16576E+02    32   0.674E+01    0.431E+01
RMM:  53     0.219283802426E+03   -0.12735E+02   -0.47413E+00    28   0.438E+01    0.447E+01
RMM:  54     0.229145254723E+03    0.98615E+01   -0.57375E+00    29   0.314E+01    0.441E+01
RMM:  55     0.228317461182E+03   -0.82779E+00   -0.75830E+00    30   0.226E+01    0.446E+01
RMM:  56     0.225758748370E+03   -0.25587E+01   -0.79468E+00    32   0.176E+01    0.453E+01
RMM:  57     0.206198897356E+03   -0.19560E+02   -0.47635E+00    30   0.299E+01    0.428E+01
RMM:  58     0.174617035652E+03   -0.31582E+02   -0.19989E+02    27   0.123E+02    0.451E+01
RMM:  59     0.182406023804E+03    0.77890E+01   -0.37750E+00    24   0.642E+01    0.456E+01
RMM:  60     0.181131267344E+03   -0.12748E+01   -0.82965E+00    31   0.259E+01
   2 F= 0.18113127E+03 E0= 0.18112577E+03  d E =0.183442E+03
       N       E                     dE             d eps       ncg     rms          rms(c)
RMM:   1     0.154470639508E+03   -0.27935E+02    0.78427E+01    24   0.348E+02    0.491E+01
RMM:   2     0.301430302815E+03    0.14696E+03   -0.14197E+02    30   0.137E+02    0.272E+01
RMM:   3     0.343950340760E+03    0.42520E+02   -0.16645E+02    31   0.125E+02    0.144E+01
RMM:   4     0.359701997229E+03    0.15752E+02    0.91794E+01    27   0.838E+01    0.924E+00
RMM:   5     0.359760324849E+03    0.58328E-01   -0.74007E+00    31   0.451E+01    0.573E+00
RMM:   6     0.363940384070E+03    0.41801E+01    0.63839E+00    23   0.344E+01    0.426E+00
RMM:   7     0.364023293023E+03    0.82909E-01   -0.42019E+00    35   0.166E+01    0.286E+00
RMM:   8     0.364036450142E+03    0.13157E-01   -0.13401E+00    34   0.103E+01    0.265E+00
RMM:   9     0.363913094001E+03   -0.12336E+00   -0.43991E-01    30   0.912E+00    0.522E+00
RMM:  10     0.363220357961E+03   -0.69274E+00   -0.61943E-01    32   0.555E+00    0.643E+00
RMM:  11     0.363808482969E+03    0.58813E+00   -0.44463E-01    34   0.447E+00    0.587E+00
RMM:  12     0.362841726756E+03   -0.96676E+00   -0.55853E-01    33   0.547E+00    0.466E+00
RMM:  13     0.361660700477E+03   -0.11810E+01   -0.34186E-01    32   0.672E+00    0.485E+00
RMM:  14     0.362302205337E+03    0.64150E+00   -0.25457E-02    26   0.487E+00    0.461E+00
RMM:  15     0.362234545631E+03   -0.67660E-01    0.21598E-03    26   0.283E+00    0.462E+00
RMM:  16     0.362341238282E+03    0.10669E+00   -0.10948E-02    28   0.203E+00    0.458E+00
RMM:  17     0.362532965739E+03    0.19173E+00   -0.11874E-02    31   0.117E+00    0.456E+00
RMM:  18     0.362104620991E+03   -0.42834E+00   -0.32058E+00    30   0.671E+00    0.630E+00
RMM:  19     0.362584735556E+03    0.48011E+00    0.25831E-01    24   0.718E+00    0.617E+00
RMM:  20     0.363321662612E+03    0.73693E+00   -0.18075E-01    33   0.307E+00    0.610E+00
RMM:  21     0.363354269215E+03    0.32607E-01   -0.87521E-02    29   0.205E+00    0.610E+00
RMM:  22     0.363353294206E+03   -0.97501E-03   -0.19896E-01    31   0.142E+00    0.610E+00
RMM:  23     0.364009761687E+03    0.65647E+00   -0.97625E-02    33   0.178E+00    0.204E+00
RMM:  24     0.363995829687E+03   -0.13932E-01   -0.96557E-02    34   0.259E+00    0.212E+00
RMM:  25     0.363933415924E+03   -0.62414E-01   -0.40588E-02    32   0.234E+00    0.277E+00
RMM:  26     0.363843708356E+03   -0.89708E-01   -0.23631E-01    33   0.350E+00    0.378E+00
RMM:  27     0.363837522523E+03   -0.61858E-02   -0.36275E-02    31   0.343E+00    0.393E+00
RMM:  28     0.363901179849E+03    0.63657E-01   -0.19393E-01    33   0.299E+00    0.380E+00
RMM:  29     0.363918512268E+03    0.17332E-01   -0.10930E-02    29   0.268E+00    0.338E+00
RMM:  30     0.363643576606E+03   -0.27494E+00   -0.34838E-02    32   0.222E+00    0.551E+00
RMM:  31     0.363669002985E+03    0.25426E-01   -0.24730E-02    33   0.144E+00    0.549E+00
RMM:  32     0.363451559078E+03   -0.21744E+00   -0.30643E-02    35   0.114E+00    0.577E+00
RMM:  33     0.363875669648E+03    0.42411E+00   -0.25960E-02    32   0.122E+00    0.424E+00
RMM:  34     0.363927508221E+03    0.51839E-01   -0.87161E-03    31   0.135E+00    0.343E+00
RMM:  35     0.363949730908E+03    0.22223E-01   -0.86252E-03    34   0.125E+00    0.291E+00
RMM:  36     0.363955360653E+03    0.56297E-02    0.76535E-04    33   0.107E+00    0.274E+00
RMM:  37     0.363986961554E+03    0.31601E-01   -0.80730E-03    35   0.770E-01    0.199E+00
RMM:  38     0.363979590060E+03   -0.73715E-02   -0.76524E-03    35   0.641E-01    0.218E+00
RMM:  39     0.363997311179E+03    0.17721E-01   -0.52387E-03    35   0.509E-01    0.162E+00
RMM:  40     0.363991535826E+03   -0.57754E-02   -0.59952E-03    34   0.525E-01    0.177E+00
RMM:  41     0.363999761021E+03    0.82252E-02   -0.11530E-02    35   0.556E-01    0.121E+00
RMM:  42     0.363998575298E+03   -0.11857E-02   -0.33257E-03    30   0.611E-01    0.118E+00
RMM:  43     0.363998652545E+03    0.77247E-04   -0.48835E-03    33   0.474E-01    0.119E+00
RMM:  44     0.363996214685E+03   -0.24379E-02   -0.29819E-03    30   0.320E-01    0.137E+00
RMM:  45     0.363997102891E+03    0.88821E-03   -0.54498E-03    32   0.331E-01    0.139E+00
RMM:  46     0.363972194263E+03   -0.24909E-01   -0.42260E-03    32   0.365E-01    0.223E+00
RMM:  47     0.363992617852E+03    0.20424E-01   -0.20295E-03    32   0.475E-01    0.168E+00
RMM:  48     0.363996476382E+03    0.38585E-02   -0.42827E-03    32   0.490E-01    0.125E+00
RMM:  49     0.363989863260E+03   -0.66131E-02   -0.47954E-03    33   0.562E-01    0.120E+00
RMM:  50     0.363956052478E+03   -0.33811E-01   -0.26111E-02    33   0.960E-01    0.139E+00
RMM:  51     0.363937569509E+03   -0.18483E-01   -0.75038E-03    34   0.120E+00    0.125E+00
RMM:  52     0.363790379136E+03   -0.14719E+00   -0.14480E-01    33   0.150E+00    0.286E+00
RMM:  53     0.363873880299E+03    0.83501E-01    0.29979E-02    28   0.169E+00    0.198E+00
RMM:  54     0.363895018770E+03    0.21138E-01   -0.36370E-03    28   0.882E-01    0.173E+00
RMM:  55     0.363914909827E+03    0.19891E-01    0.27364E-03    31   0.679E-01    0.146E+00
RMM:  56     0.363932869016E+03    0.17959E-01   -0.59840E-03    32   0.673E-01    0.156E+00
RMM:  57     0.363928944863E+03   -0.39242E-02   -0.19227E-03    34   0.928E-01    0.211E+00
RMM:  58     0.363967173981E+03    0.38229E-01   -0.61343E-03    33   0.104E+00    0.169E+00
RMM:  59     0.363995569576E+03    0.28396E-01   -0.72034E-03    30   0.104E+00    0.114E+00
RMM:  60     0.364002473873E+03    0.69043E-02    0.14871E-02    34   0.109E+00
   3 F= 0.36400247E+03 E0= 0.36407145E+03  d E =0.366313E+03
       N       E                     dE             d eps       ncg     rms          rms(c)
RMM:   1     0.364016010324E+03    0.20441E-01    0.17416E-02    29   0.539E+00    0.828E-01
RMM:   2     0.363977605719E+03   -0.38405E-01   -0.30222E-02    32   0.178E+00    0.202E+00
RMM:   3     0.363972587673E+03   -0.50180E-02   -0.85031E-03    33   0.138E+00    0.201E+00
RMM:   4     0.364019994517E+03    0.47407E-01   -0.38951E-03    32   0.121E+00    0.279E-01
RMM:   5     0.364021675992E+03    0.16815E-02   -0.63209E-03    35   0.875E-01    0.157E-01
RMM:   6     0.364023175701E+03    0.14997E-02    0.49087E-03    30   0.658E-01    0.688E-02
RMM:   7     0.364022661952E+03   -0.51375E-03    0.33366E-05    37   0.481E-01    0.619E-02
RMM:   8     0.364022164315E+03   -0.49764E-03   -0.13458E-04    31   0.306E-01    0.364E-02
RMM:   9     0.364021822048E+03   -0.34227E-03    0.94558E-04    31   0.281E-01    0.190E-02
RMM:  10     0.364021338825E+03   -0.48322E-03    0.17933E-04    32   0.189E-01    0.101E-02
RMM:  11     0.364021121404E+03   -0.21742E-03    0.19506E-04    26   0.150E-01    0.106E-02
RMM:  12     0.364020882856E+03   -0.23855E-03    0.27448E-04    24   0.135E-01    0.698E-03
RMM:  13     0.364020595687E+03   -0.28717E-03    0.14630E-04    26   0.160E-01    0.641E-03
RMM:  14     0.364020523404E+03   -0.72283E-04    0.16885E-04    19   0.116E-01
   4 F= 0.36402052E+03 E0= 0.36409260E+03  d E =0.366331E+03
       N       E                     dE             d eps       ncg     rms          rms(c)
RMM:   1     0.364017900253E+03   -0.26954E-02    0.20291E-03    29   0.125E+00    0.105E-01
RMM:   2     0.364019362289E+03    0.14620E-02    0.11569E-04    22   0.234E-01    0.679E-02
RMM:   3     0.364016987473E+03   -0.23748E-02   -0.67393E-04    33   0.213E-01    0.571E-01
RMM:   4     0.364020017153E+03    0.30297E-02   -0.47620E-04    33   0.206E-01    0.456E-02
RMM:   5     0.364020070862E+03    0.53709E-04    0.10172E-04    25   0.230E-01
   5 F= 0.36402007E+03 E0= 0.36409203E+03  d E =0.366331E+03
       N       E                     dE             d eps       ncg     rms          rms(c)
RMM:   1     0.364020041367E+03    0.24215E-04   -0.23084E-04    30   0.298E-01    0.261E-02
RMM:   2     0.364019102939E+03   -0.93843E-03    0.27905E-05    21   0.170E-01    0.316E-01
RMM:   3     0.364019977007E+03    0.87407E-03   -0.36584E-04    25   0.180E-01    0.327E-02
RMM:   4     0.364020043018E+03    0.66011E-04    0.27410E-04    18   0.156E-01
   6 F= 0.36402004E+03 E0= 0.36409208E+03  d E =0.366331E+03
       N       E                     dE             d eps       ncg     rms          rms(c)
RMM:   1     0.364020015135E+03    0.38128E-04    0.31756E-05    22   0.189E-01    0.160E-02
RMM:   2     0.364019949002E+03   -0.66133E-04   -0.45228E-05    23   0.135E-01
   7 F= 0.36401995E+03 E0= 0.36409262E+03  d E =0.366331E+03
       N       E                     dE             d eps       ncg     rms          rms(c)
RMM:   1     0.364020001824E+03   -0.13311E-04    0.33331E-05    15   0.888E-02    0.137E-02
RMM:   2     0.364019903256E+03   -0.98568E-04    0.13109E-05    12   0.696E-02
   8 F= 0.36401990E+03 E0= 0.36409273E+03  d E =0.366331E+03
       N       E                     dE             d eps       ncg     rms          rms(c)
RMM:   1     0.364019958809E+03   -0.43015E-04   -0.34255E-04    17   0.998E-02    0.164E-02
RMM:   2     0.364019954248E+03   -0.45613E-05    0.14028E-04    19   0.161E-01
   9 F= 0.36401995E+03 E0= 0.36409225E+03  d E =0.366331E+03
       N       E                     dE             d eps       ncg     rms          rms(c)
RMM:   1     0.364019955353E+03   -0.34564E-05    0.10077E-04    15   0.110E-01    0.409E-02
RMM:   2     0.364016834173E+03   -0.31212E-02   -0.26319E-04    21   0.106E-01    0.586E-01
RMM:   3     0.364019911348E+03    0.30772E-02   -0.48871E-04    27   0.197E-01    0.422E-02
RMM:   4     0.364019926134E+03    0.14786E-04   -0.17199E-05    23   0.202E-01
  10 F= 0.36401993E+03 E0= 0.36409196E+03  d E =0.366331E+03
       N       E                     dE             d eps       ncg     rms          rms(c)
RMM:   1     0.954921684599E+02   -0.26853E+03   -0.29897E+02    38   0.166E+02    0.787E+01
RMM:   2     0.646010821718E+03    0.55052E+03   -0.24263E+02    33   0.130E+02    0.494E+01
RMM:   3     0.909182002961E+03    0.26317E+03   -0.13243E+03    34   0.279E+02    0.976E+00
RMM:   4     0.643204691147E+03   -0.26598E+03   -0.24726E+03    31   0.543E+02    0.155E+01
RMM:   5     0.261357889982E+03   -0.38185E+03   -0.32265E+03    31   0.746E+02    0.407E+01
RMM:   6     0.337276794225E+02   -0.22763E+03   -0.22792E+03    29   0.689E+02    0.496E+01
RMM:   7    -0.107030454477E+03   -0.14076E+03   -0.17642E+03    29   0.645E+02    0.602E+01
RMM:   8    -0.197598805773E+03   -0.90568E+02   -0.12281E+03    27   0.491E+02    0.668E+01
RMM:   9    -0.324180023805E+03   -0.12658E+03   -0.12984E+03    32   0.401E+02    0.766E+01
RMM:  10    -0.419672891285E+03   -0.95493E+02   -0.85899E+02    31   0.322E+02    0.829E+01
RMM:  11    -0.453050208942E+03   -0.33377E+02   -0.17983E+02    25   0.285E+02    0.834E+01
RMM:  12    -0.474572361110E+03   -0.21522E+02   -0.47688E+01    28   0.114E+02    0.835E+01
RMM:  13    -0.478052776755E+03   -0.34804E+01    0.65983E+00    25   0.651E+01    0.836E+01
RMM:  14    -0.478364693268E+03   -0.31192E+00    0.75670E+00    29   0.448E+01    0.834E+01
RMM:  15    -0.477547539230E+03    0.81715E+00    0.11314E+01    25   0.543E+01    0.836E+01
RMM:  16    -0.605257884688E+03   -0.12771E+03    0.13463E+01    27   0.837E+01    0.858E+01
RMM:  17    -0.627787158556E+03   -0.22529E+02   -0.79759E+01    22   0.750E+01    0.868E+01
RMM:  18    -0.627414852972E+03    0.37231E+00   -0.10483E+01    23   0.274E+01    0.875E+01
RMM:  19    -0.631110269727E+03   -0.36954E+01   -0.38349E-01    23   0.822E+00    0.881E+01
RMM:  20    -0.637235636229E+03   -0.61254E+01   -0.17644E-01    21   0.618E+00    0.888E+01
RMM:  21    -0.661921018152E+03   -0.24685E+02   -0.60232E-01    20   0.116E+01    0.902E+01
RMM:  22     0.101332440725E+07    0.10140E+07    0.50625E+06    32   0.104E+03    0.989E+01
RMM:  23    -0.107194936961E+04   -0.10144E+07   -0.27984E+03    30   0.827E+02    0.984E+01
RMM:  24    -0.173178806217E+05   -0.16246E+05    0.64649E+04    26   0.401E+03    0.882E+01
RMM:  25    -0.955795178822E+03    0.16362E+05   -0.15158E+03    32   0.168E+03    0.892E+01
RMM:  26    -0.123624025014E+04   -0.28045E+03   -0.46315E+03    31   0.162E+03    0.719E+01
RMM:  27    -0.308784100085E+05   -0.29642E+05    0.13534E+05    32   0.437E+04    0.684E+01
RMM:  28    -0.575086157812E+03    0.30303E+05    0.90446E+02    26   0.114E+03    0.800E+01
RMM:  29     0.328414946109E+01    0.57837E+03   -0.10845E+03    29   0.414E+02    0.806E+01
RMM:  30    -0.151049167138E+05   -0.15108E+05    0.54793E+03    25   0.671E+03    0.946E+01
RMM:  31    -0.105080535792E+05    0.45969E+04    0.16262E+03    30   0.665E+03    0.840E+01
RMM:  32    -0.548840285932E+04    0.50197E+04    0.16315E+04    27   0.629E+03    0.767E+01
RMM:  33    -0.478407955263E+03    0.50100E+04   -0.28522E+03    32   0.695E+02    0.791E+01
RMM:  34     0.495141996370E+05    0.49993E+05    0.74719E+04    29   0.120E+05    0.633E+01
RMM:  35    -0.172174304459E+03   -0.49686E+05   -0.33926E+03    32   0.834E+02    0.772E+01
RMM:  36    -0.856509044459E+02    0.86523E+02   -0.23791E+03    28   0.105E+03    0.827E+01
RMM:  37     0.212742466497E+04    0.22131E+04    0.45061E+04    21   0.874E+03    0.689E+01
RMM:  38    -0.120058022372E+04   -0.33280E+04   -0.17244E+03    27   0.929E+02    0.854E+01
RMM:  39     0.486341498271E+03    0.16869E+04   -0.13325E+03    28   0.758E+02    0.760E+01
RMM:  40     0.341483644227E+03   -0.14486E+03   -0.83533E+02    25   0.655E+02    0.786E+01
RMM:  41     0.819237246471E+03    0.47775E+03    0.21834E+02    21   0.102E+03    0.770E+01
RMM:  42     0.818512616412E+03   -0.72463E+00    0.14240E+03    26   0.875E+02    0.672E+01
RMM:  43     0.618604932390E+03   -0.19991E+03    0.30943E+03    20   0.247E+03    0.741E+01
RMM:  44     0.989246610939E+03    0.37064E+03   -0.45434E+02    25   0.695E+02    0.721E+01
RMM:  45     0.171876161127E+04    0.72952E+03   -0.54625E+02    23   0.981E+02    0.696E+01
RMM:  46     0.163494348496E+04   -0.83818E+02   -0.37777E+02    24   0.107E+03    0.684E+01
RMM:  47     0.661220840840E+02   -0.15688E+04   -0.20049E+03    30   0.743E+02    0.448E+01
RMM:  48     0.325537902682E+02   -0.33568E+02   -0.12214E+03    28   0.547E+02    0.568E+01
RMM:  49    -0.885326124329E+03   -0.91788E+03   -0.28895E+03    29   0.125E+03    0.713E+01
RMM:  50    -0.602173966236E+04   -0.51364E+04   -0.16540E+04    26   0.273E+03    0.833E+01
RMM:  51    -0.150210938458E+04    0.45196E+04   -0.98915E+03    29   0.245E+03    0.591E+01
RMM:  52     0.133941234083E+02    0.15155E+04   -0.25280E+03    31   0.743E+02    0.713E+01
RMM:  53    -0.121558060517E+02   -0.25550E+02   -0.58268E+02    30   0.221E+02    0.707E+01
RMM:  54     0.316624561279E+03    0.32878E+03   -0.93776E+02    28   0.410E+02    0.608E+01
RMM:  55     0.133639053478E+03   -0.18299E+03   -0.55168E+02    26   0.336E+02    0.628E+01
RMM:  56     0.439015605566E+03    0.30538E+03    0.24778E+02    25   0.456E+02    0.587E+01
RMM:  57    -0.467484861363E+02   -0.48576E+03   -0.64043E+02    30   0.418E+02    0.676E+01
RMM:  58     0.266719484105E+03    0.31347E+03   -0.16962E+03    30   0.705E+02    0.648E+01
RMM:  59     0.386628701292E+03    0.11991E+03   -0.14925E+03    25   0.956E+02    0.665E+01
RMM:  60    -0.653376585245E+02   -0.45197E+03   -0.61695E+02    29   0.243E+02
  11 F= -.65337659E+02 E0= -.65341524E+02  d E =-.630268E+02
