 vasp.5.4.1 24Jun15 (build Jan 06 2016 13:19:48) gamma-only                     
  
 executed on           IFC91_ompi date 2016.03.24  06:24:25
 running on    8 total cores
 distrk:  each k-point on    8 cores,    1 groups
 distr:  one band on NCORES_PER_BAND=   4 cores,    2 groups


--------------------------------------------------------------------------------------------------------


 INCAR:
 POTCAR:    PAW O_s                               
 POTCAR:    PAW O_s                               
   VRHFIN =O: s2p4                                                              
   LEXCH  = 91                                                                  
   EATOM  =   433.0277 eV,   31.8266 Ry                                         
                                                                                
   TITEL  = PAW O_s                                                             
   LULTRA =        F    use ultrasoft PP ?                                      
   IUNSCR =        0    unscreen: 0-lin 1-nonlin 2-no                           
   RPACOR =     .000    partial core radius                                     
   POMASS =   16.000; ZVAL   =    6.000    mass and valenz                      
   RCORE  =    1.900    outmost cutoff radius                                   
   RWIGS  =    1.700; RWIGS  =     .900    wigner-seitz radius (au A)           
   ENMAX  =  250.000; ENMIN  =  202.667 eV                                      
   RCLOC  =    1.014    cutoff for local pot                                    
   LCOR   =        T    correct aug charges                                     
   LPAW   =        T    paw PP                                                  
   EAUG   =  412.352                                                            
   DEXC   =     .000                                                            
   RMAX   =    2.805    core radius for proj-oper                               
   RDEP   =    2.002    core radius for depl-charge                             
   QCUT   =   -4.457; QGAM   =    8.913    optimization parameters              
                                                                                
   Description                                                                  
     l     E      TYP  RCUT    TYP  RCUT                                        
     0   .000     23  1.500                                                     
     0   .000     23  1.500                                                     
     1   .000     23  1.900                                                     
     1   .000     23  1.900                                                     
     2   .000      7   .000                                                     
  local pseudopotential read in
  atomic valenz-charges read in
  non local Contribution for L=           0  read in
    real space projection operators read in
  non local Contribution for L=           0  read in
    real space projection operators read in
  non local Contribution for L=           1  read in
    real space projection operators read in
  non local Contribution for L=           1  read in
    real space projection operators read in
    PAW grid and wavefunctions read in
 
   number of l-projection  operators is LMAX  =           4
   number of lm-projection operators is LMMAX =           8
 

 ----------------------------------------------------------------------------- 
|                                                                             |
|  ADVICE TO THIS USER RUNNING 'VASP/VAMP'   (HEAR YOUR MASTER'S VOICE ...):  |
|                                                                             |
|      You have a (more or less) 'small supercell' and for smaller cells      |
|      it is recommended  to use the reciprocal-space projection scheme!      |
|      The real space optimization is not  efficient for small cells and it   |
|      is also less accurate ...                                              |
|      Therefore set LREAL=.FALSE. in the  INCAR file                         |
|                                                                             |
 ----------------------------------------------------------------------------- 

 Optimization of the real space projectors (new method)

 maximal supplied QI-value         = 19.84
 optimisation between [QCUT,QGAM] = [  8.33, 16.87] = [ 19.45, 79.66] Ry 
 Optimized for a Real-space Cutoff    1.67 Angstroem

   l    n(q)    QCUT    max X(q) W(low)/X(q) W(high)/X(q)  e(spline) 
   0      8     8.334     3.485    0.84E-05    0.10E-04    0.85E-07
   0      8     8.334    30.133    0.11E-03    0.28E-03    0.23E-06
   1      8     8.334     3.755    0.67E-04    0.37E-04    0.14E-06
   1      8     8.334    24.805    0.39E-03    0.35E-03    0.29E-06
  PAW O_s                               :
 energy of atom  1       EATOM= -433.0277
 kinetic energy error for atom=    0.0747 (will be added to EATOM!!)
 
 
 POSCAR: O                                       
  positions in direct lattice
  velocities in cartesian coordinates
 exchange correlation table for  LEXCH =        7
   RHO(1)=    0.500       N(1)  =     2000
   RHO(2)=  100.500       N(2)  =     4000

 VTST: version 3.1, (03/28/14)

 CHAIN: initializing optimizer
 
 OPT: Using VASP Conjugate-Gradient optimizer
 CHAIN: Read ICHAIN            0
 
 POSCAR: O                                       
  positions in direct lattice
  velocities in cartesian coordinates
 


--------------------------------------------------------------------------------------------------------


 ion  position               nearest neighbor table
   1  0.100  0.100  0.100-   2 0.72
   2  0.100  0.100  0.120-   1 0.72
 

 ----------------------------------------------------------------------------- 
|                                                                             |
|           W    W    AA    RRRRR   N    N  II  N    N   GGGG   !!!           |
|           W    W   A  A   R    R  NN   N  II  NN   N  G    G  !!!           |
|           W    W  A    A  R    R  N N  N  II  N N  N  G       !!!           |
|           W WW W  AAAAAA  RRRRR   N  N N  II  N  N N  G  GGG   !            |
|           WW  WW  A    A  R   R   N   NN  II  N   NN  G    G                |
|           W    W  A    A  R    R  N    N  II  N    N   GGGG   !!!           |
|                                                                             |
|      The distance between some ions is very small                           |
|      please check the nearest neigbor list in the OUTCAR file               |
|          I HOPE YOU KNOW, WHAT YOU ARE  DOING                               |
|                                                                             |
 ----------------------------------------------------------------------------- 


IMPORTANT INFORMATION: All symmetrisations will be switched off!
NOSYMM: (Re-)initialisation of all symmetry stuff for point group C_1.

 
 
 KPOINTS: Automatic Mesh                          

Automatic generation of k-mesh.
Space group operators:
 irot       det(A)        alpha          n_x          n_y          n_z        tau_x        tau_y        tau_z
    1     1.000000     0.000000     1.000000     0.000000     0.000000     0.000000     0.000000     0.000000
 
 Subroutine IBZKPT returns following result:
 ===========================================
 
 Found      1 irreducible k-points:
 
 Following reciprocal coordinates:
            Coordinates               Weight
  0.000000  0.000000  0.000000      1.000000
 
 Following cartesian coordinates:
            Coordinates               Weight
  0.000000  0.000000  0.000000      1.000000
 


--------------------------------------------------------------------------------------------------------




 Dimension of arrays:
   k-points           NKPTS =      1   k-points in BZ     NKDIM =      1   number of bands    NBANDS=     10
   number of dos      NEDOS =    301   number of ions     NIONS =      2
   non local maximal  LDIM  =      4   non local SUM 2l+1 LMDIM =      8
   total plane-waves  NPLWV = ******
   max r-space proj   IRMAX =   1456   max aug-charges    IRDMAX=   1869
   dimension x,y,z NGX =   150 NGY =  150 NGZ =  150
   dimension x,y,z NGXF=   300 NGYF=  300 NGZF=  300
   support grid    NGXF=   300 NGYF=  300 NGZF=  300
   ions per type =               2
 NGX,Y,Z   is equivalent  to a cutoff of   6.93,  6.93,  6.93 a.u.
 NGXF,Y,Z  is equivalent  to a cutoff of  13.85, 13.85, 13.85 a.u.


 I would recommend the setting:
   dimension x,y,z NGX =   146 NGY =  146 NGZ =  146
 SYSTEM =  Pt cube particle                        
 POSCAR =  O                                       

 Startparameter for this run:
   NWRITE =      2    write-flag & timer
   PREC   = normal    normal or accurate (medium, high low for compatibility)
   ISTART =      0    job   : 0-new  1-cont  2-samecut
   ICHARG =      2    charge: 1-file 2-atom 10-const
   ISPIN  =      1    spin polarized calculation?
   LNONCOLLINEAR =      F non collinear calculations
   LSORBIT =      F    spin-orbit coupling
   INIWAV =      1    electr: 0-lowe 1-rand  2-diag
   LASPH  =      F    aspherical Exc in radial PAW
   METAGGA=      F    non-selfconsistent MetaGGA calc.

 Electronic Relaxation 1
   ENCUT  =  274.0 eV  20.14 Ry    4.49 a.u.  48.59 48.59 48.59*2*pi/ulx,y,z
   ENINI  =  274.0     initial cutoff
   ENAUG  =  412.4 eV  augmentation charge cutoff
   NELM   =     60;   NELMIN=  2; NELMDL=  0     # of ELM steps 
   EDIFF  = 0.1E-03   stopping-criterion for ELM
   LREAL  =      T    real-space projection
   NLSPLINE    = F    spline interpolate recip. space projectors
   LCOMPAT=      F    compatible to vasp.4.4
   GGA_COMPAT  = T    GGA compatible to vasp.4.4-vasp.4.6
   LMAXPAW     = -100 max onsite density
   LMAXMIX     =    2 max onsite mixed and CHGCAR
   VOSKOWN=      0    Vosko Wilk Nusair interpolation
   ROPT   =   -0.00050
 Ionic relaxation
   EDIFFG = -.5E-02   stopping-criterion for IOM
   NSW    =    200    number of steps for IOM
   NBLOCK =      1;   KBLOCK =    200    inner block; outer block 
   IBRION =      2    ionic relax: 0-MD 1-quasi-New 2-CG
   NFREE  =      1    steps in history (QN), initial steepest desc. (CG)
   ISIF   =      0    stress and relaxation
   IWAVPR =     11    prediction:  0-non 1-charg 2-wave 3-comb
   ISYM   =      0    0-nonsym 1-usesym 2-fastsym
   LCORR  =      T    Harris-Foulkes like correction to forces

   POTIM  = 0.1000    time-step for ionic-motion
   TEIN   =    0.0    initial temperature
   TEBEG  =    0.0;   TEEND  =   0.0 temperature during run
   SMASS  =  -3.00    Nose mass-parameter (am)
   estimated Nose-frequenzy (Omega)   =  0.10E-29 period in steps =****** mass=  -0.296E-25a.u.
   SCALEE = 1.0000    scale energy and forces
   NPACO  =    256;   APACO  = 16.0  distance and # of slots for P.C.
   PSTRESS=    0.0 pullay stress

  Mass of Ions in am
   POMASS =  16.00
  Ionic Valenz
   ZVAL   =   6.00
  Atomic Wigner-Seitz radii
   RWIGS  =  -1.00
  virtual crystal weights 
   VCA    =   1.00
   NELECT =      12.0000    total number of electrons
   NUPDOWN=      -1.0000    fix difference up-down

 DOS related values:
   EMIN   =  10.00;   EMAX   =-10.00  energy-range for DOS
   EFERMI =   0.00
   ISMEAR =     1;   SIGMA  =   0.20  broadening in eV -4-tet -1-fermi 0-gaus

 Electronic relaxation 2 (details)
   IALGO  =     48    algorithm
   LDIAG  =      T    sub-space diagonalisation (order eigenvalues)
   LSUBROT=      F    optimize rotation matrix (better conditioning)
   TURBO    =      0    0=normal 1=particle mesh
   IRESTART =      0    0=no restart 2=restart with 2 vectors
   NREBOOT  =      0    no. of reboots
   NMIN     =      0    reboot dimension
   EREF     =   0.00    reference energy to select bands
   IMIX   =      4    mixing-type and parameters
     AMIX     =   0.40;   BMIX     =  1.00
     AMIX_MAG =   1.60;   BMIX_MAG =  1.00
     AMIN     =   0.10
     WC   =   100.;   INIMIX=   1;  MIXPRE=   1;  MAXMIX= -45

 Intra band minimization:
   WEIMIN = 0.0010     energy-eigenvalue tresh-hold
   EBREAK =  0.25E-05  absolut break condition
   DEPER  =   0.30     relativ break condition  

   TIME   =   0.40     timestep for ELM

  volume/ion in A,a.u.               =   23328.00    157425.11
  Fermi-wavevector in a.u.,A,eV,Ry     =   0.104112  0.196743  0.147477  0.010839
  Thomas-Fermi vector in A             =   0.688024
 
 Write flags
   LWAVE  =      F    write WAVECAR
   LCHARG =      F    write CHGCAR
   LVTOT  =      F    write LOCPOT, total local potential
   LVHAR  =      F    write LOCPOT, Hartree potential only
   LELF   =      F    write electronic localiz. function (ELF)
   LORBIT =      0    0 simple, 1 ext, 2 COOP (PROOUT)


 Dipole corrections
   LMONO  =      F    monopole corrections only (constant potential shift)
   LDIPOL =      F    correct potential (dipole corrections)
   IDIPOL =      0    1-x, 2-y, 3-z, 4-all directions 
   EPSILON=  1.0000000 bulk dielectric constant

 Exchange correlation treatment:
   GGA     =    --    GGA type
   LEXCH   =     7    internal setting for exchange type
   VOSKOWN=      0    Vosko Wilk Nusair interpolation
   LHFCALC =     F    Hartree Fock is set to
   LHFONE  =     F    Hartree Fock one center treatment
   AEXX    =    0.0000 exact exchange contribution

 Linear response parameters
   LEPSILON=     F    determine dielectric tensor
   LRPA    =     F    only Hartree local field effects (RPA)
   LNABLA  =     F    use nabla operator in PAW spheres
   LVEL    =     F    velocity operator in full k-point grid
   LINTERFAST=   F  fast interpolation
   KINTER  =     0    interpolate to denser k-point grid
   CSHIFT  =0.1000    complex shift for real part using Kramers Kronig
   OMEGAMAX=  -1.0    maximum frequency
   DEG_THRESHOLD= 0.2000000E-02 threshold for treating states as degnerate
   RTIME   =    0.100 relaxation time in fs

 Orbital magnetization related:
   ORBITALMAG=     F  switch on orbital magnetization
   LCHIMAG   =     F  perturbation theory with respect to B field
   DQ        =  0.001000  dq finite difference perturbation B field



--------------------------------------------------------------------------------------------------------


 conjugate gradient relaxation of ions
   using selective dynamics as specified on POSCAR
 charge density and potential will be updated during run
 non-spin polarized calculation
 RMM-DIIS sequential band-by-band
 perform sub-space diagonalisation
    before iterative eigenvector-optimisation
 modified Broyden-mixing scheme, WC =      100.0
 initial mixing is a Kerker type mixing with AMIX =  0.4000 and BMIX =      1.0000
 Hartree-type preconditioning will be used
 using additional bands            4
 real space projection scheme for non local part
 calculate Harris-corrections to forces 
   (improved forces if not selfconsistent)
 use gradient corrections 
 use of overlap-Matrix (Vanderbilt PP)
 Methfessel and Paxton  Order N= 1 SIGMA  =   0.20


--------------------------------------------------------------------------------------------------------


  energy-cutoff  :      274.00
  volume of cell :    46656.00
      direct lattice vectors                 reciprocal lattice vectors
    36.000000000  0.000000000  0.000000000     0.027777778  0.000000000  0.000000000
     0.000000000 36.000000000  0.000000000     0.000000000  0.027777778  0.000000000
     0.000000000  0.000000000 36.000000000     0.000000000  0.000000000  0.027777778

  length of vectors
    36.000000000 36.000000000 36.000000000     0.027777778  0.027777778  0.027777778


 
 k-points in units of 2pi/SCALE and weight: Automatic Mesh                          
   0.00000000  0.00000000  0.00000000       1.000
 
 k-points in reciprocal lattice and weights: Automatic Mesh                          
   0.00000000  0.00000000  0.00000000       1.000
 
 position of ions in fractional coordinates (direct lattice) 
   0.10000000  0.10000000  0.10000000
   0.10000000  0.10000000  0.12000000
 
 position of ions in cartesian coordinates  (Angst):
   3.60000000  3.60000000  3.60000000
   3.60000000  3.60000000  4.32000000
 


--------------------------------------------------------------------------------------------------------


 use parallel FFT for wavefunctions z direction half grid
 k-point  1 :   0.0000 0.0000 0.0000  plane waves:  240185

 maximum and minimum number of plane-waves per node :     60052    60043

 maximum number of plane-waves:    240185
 maximum index in each direction: 
   IXMAX=   48   IYMAX=   48   IZMAX=   48
   IXMIN=  -48   IYMIN=  -48   IZMIN=    0

 WARNING: aliasing errors must be expected set NGX to 194 to avoid them
 WARNING: aliasing errors must be expected set NGY to 194 to avoid them
 WARNING: aliasing errors must be expected set NGZ to 194 to avoid them
 aliasing errors are usually negligible using standard VASP settings
 and one can safely disregard these warnings

 real space projection operators:
  total allocation   :        169.62 KBytes
  max/ min on nodes  :         43.50         41.88


 parallel 3D FFT for wavefunctions:
    minimum data exchange during FFTs selected (reduces bandwidth)
 parallel 3D FFT for charge:
    minimum data exchange during FFTs selected (reduces bandwidth)


 total amount of memory used by VASP on root node   367344. kBytes
========================================================================

   base      :      30000. kBytes
   nonlr-proj:         51. kBytes
   fftplans  :     133308. kBytes
   grid      :     199180. kBytes
   one-center:          1. kBytes
   wavefun   :       4804. kBytes
 
     INWAV:  cpu time    0.0010: real time    0.0002
 Broyden mixing: mesh for mixing (old mesh)
   NGX = 97   NGY = 97   NGZ = 97
  (NGX  =300   NGY  =300   NGZ  =300)
  gives a total of 912673 points

 initial charge density was supplied:
 charge density of overlapping atoms calculated
 number of electron      12.0000000 magnetization 
 keeping initial charge density in first step


--------------------------------------------------------------------------------------------------------


 Maximum index for non-local projection operator          335
 Maximum index for augmentation-charges          206 (set IRDMAX)


--------------------------------------------------------------------------------------------------------


 First call to EWALD:  gamma=   0.049
 Maximum number of real-space cells 3x 3x 3
 Maximum number of reciprocal cells 3x 3x 3

 FEWALD executed in parallel
    FEWALD:  cpu time    0.0020: real time    0.0026


----------------------------------------- Iteration    1(   1)  ---------------------------------------


    POTLOK:  cpu time   14.8447: real time   14.8551
    SETDIJ:  cpu time    0.0130: real time    0.0129
    EDDIAG:  cpu time    1.8277: real time    1.8310
  RMM-DIIS:  cpu time    3.9334: real time    3.9358
    ORTHCH:  cpu time    0.0770: real time    0.0773
       DOS:  cpu time    0.0010: real time    0.0005
    --------------------------------------------
      LOOP:  cpu time   20.7009: real time   20.7180

 eigenvalue-minimisations  :    10
 total energy-change (2. order) : 0.3320324E+03  (-0.3527301E+02)
 number of electron      12.0000000 magnetization 
 augmentation part       12.0000000 magnetization 

 Free energy of the ion-electron system (eV)
  ---------------------------------------------------
  alpha Z        PSCENC =         0.01427242
  Ewald energy   TEWEN  =       638.28846798
  -Hartree energ DENC   =     -1227.10823426
  -exchange      EXHF   =         0.00000000
  -V(xc)+E(xc)   XCENC  =        58.72956589
  PAW double counting   =       605.44099397     -612.49690959
  entropy T*S    EENTRO =        -0.01982688
  eigenvalues    EBANDS =         3.27806343
  atomic energy  EATOM  =       865.90604224
  Solvation  Ediel_sol  =         0.00000000
  ---------------------------------------------------
  free energy    TOTEN  =       332.03243520 eV

  energy without entropy =      332.05226208  energy(sigma->0) =      332.03904416


--------------------------------------------------------------------------------------------------------




----------------------------------------- Iteration    1(   2)  ---------------------------------------


    EDDIAG:  cpu time    1.8087: real time    1.8093
  RMM-DIIS:  cpu time    3.8814: real time    3.8856
    ORTHCH:  cpu time    0.0780: real time    0.0775
       DOS:  cpu time    0.0010: real time    0.0005
    --------------------------------------------
      LOOP:  cpu time    5.7701: real time    5.7781

 eigenvalue-minimisations  :    10
 total energy-change (2. order) :-0.2107156E+02  (-0.2012031E+02)
 number of electron      12.0000000 magnetization 
 augmentation part       12.0000000 magnetization 

 Free energy of the ion-electron system (eV)
  ---------------------------------------------------
  alpha Z        PSCENC =         0.01427242
  Ewald energy   TEWEN  =       638.28846798
  -Hartree energ DENC   =     -1227.10823426
  -exchange      EXHF   =         0.00000000
  -V(xc)+E(xc)   XCENC  =        58.72956589
  PAW double counting   =       605.44099397     -612.49690959
  entropy T*S    EENTRO =        -0.17588250
  eigenvalues    EBANDS =       -17.63744407
  atomic energy  EATOM  =       865.90604224
  Solvation  Ediel_sol  =         0.00000000
  ---------------------------------------------------
  free energy    TOTEN  =       310.96087207 eV

  energy without entropy =      311.13675457  energy(sigma->0) =      311.01949957


--------------------------------------------------------------------------------------------------------




----------------------------------------- Iteration    1(   3)  ---------------------------------------


    EDDIAG:  cpu time    1.8097: real time    1.8115
  RMM-DIIS:  cpu time    3.8774: real time    3.8808
    ORTHCH:  cpu time    0.0780: real time    0.0776
       DOS:  cpu time    0.0010: real time    0.0006
    --------------------------------------------
      LOOP:  cpu time    5.7691: real time    5.7749

 eigenvalue-minimisations  :    10
 total energy-change (2. order) :-0.1874789E+02  (-0.2178021E+02)
 number of electron      12.0000000 magnetization 
 augmentation part       12.0000000 magnetization 

 Free energy of the ion-electron system (eV)
  ---------------------------------------------------
  alpha Z        PSCENC =         0.01427242
  Ewald energy   TEWEN  =       638.28846798
  -Hartree energ DENC   =     -1227.10823426
  -exchange      EXHF   =         0.00000000
  -V(xc)+E(xc)   XCENC  =        58.72956589
  PAW double counting   =       605.44099397     -612.49690959
  entropy T*S    EENTRO =        -0.18794434
  eigenvalues    EBANDS =       -36.37326865
  atomic energy  EATOM  =       865.90604224
  Solvation  Ediel_sol  =         0.00000000
  ---------------------------------------------------
  free energy    TOTEN  =       292.21298566 eV

  energy without entropy =      292.40093000  energy(sigma->0) =      292.27563378


--------------------------------------------------------------------------------------------------------




----------------------------------------- Iteration    1(   4)  ---------------------------------------


    EDDIAG:  cpu time    1.8067: real time    1.8078
  RMM-DIIS:  cpu time    3.8824: real time    3.8871
    ORTHCH:  cpu time    0.0760: real time    0.0771
       DOS:  cpu time    0.0000: real time    0.0004
    --------------------------------------------
      LOOP:  cpu time    5.7681: real time    5.7763

 eigenvalue-minimisations  :    10
 total energy-change (2. order) :-0.2531940E+02  (-0.2391239E+02)
 number of electron      12.0000000 magnetization 
 augmentation part       12.0000000 magnetization 

 Free energy of the ion-electron system (eV)
  ---------------------------------------------------
  alpha Z        PSCENC =         0.01427242
  Ewald energy   TEWEN  =       638.28846798
  -Hartree energ DENC   =     -1227.10823426
  -exchange      EXHF   =         0.00000000
  -V(xc)+E(xc)   XCENC  =        58.72956589
  PAW double counting   =       605.44099397     -612.49690959
  entropy T*S    EENTRO =        -0.04548057
  eigenvalues    EBANDS =       -61.83513619
  atomic energy  EATOM  =       865.90604224
  Solvation  Ediel_sol  =         0.00000000
  ---------------------------------------------------
  free energy    TOTEN  =       266.89358190 eV

  energy without entropy =      266.93906246  energy(sigma->0) =      266.90874208


--------------------------------------------------------------------------------------------------------




----------------------------------------- Iteration    1(   5)  ---------------------------------------


    EDDIAG:  cpu time    1.8067: real time    1.8083
  RMM-DIIS:  cpu time    3.8794: real time    3.8825
    ORTHCH:  cpu time    0.0770: real time    0.0771
       DOS:  cpu time    0.0000: real time    0.0004
    --------------------------------------------
      LOOP:  cpu time    5.7661: real time    5.7725

 eigenvalue-minimisations  :    10
 total energy-change (2. order) :-0.3437385E+02  (-0.3712530E+02)
 number of electron      12.0000000 magnetization 
 augmentation part       12.0000000 magnetization 

 Free energy of the ion-electron system (eV)
  ---------------------------------------------------
  alpha Z        PSCENC =         0.01427242
  Ewald energy   TEWEN  =       638.28846798
  -Hartree energ DENC   =     -1227.10823426
  -exchange      EXHF   =         0.00000000
  -V(xc)+E(xc)   XCENC  =        58.72956589
  PAW double counting   =       605.44099397     -612.49690959
  entropy T*S    EENTRO =         0.05032079
  eigenvalues    EBANDS =       -96.30478591
  atomic energy  EATOM  =       865.90604224
  Solvation  Ediel_sol  =         0.00000000
  ---------------------------------------------------
  free energy    TOTEN  =       232.51973353 eV

  energy without entropy =      232.46941274  energy(sigma->0) =      232.50295994


--------------------------------------------------------------------------------------------------------




----------------------------------------- Iteration    1(   6)  ---------------------------------------


    EDDIAG:  cpu time    1.8057: real time    1.8078
  RMM-DIIS:  cpu time    3.8824: real time    3.8858
    ORTHCH:  cpu time    0.0780: real time    0.0773
       DOS:  cpu time    0.0000: real time    0.0004
    --------------------------------------------
      LOOP:  cpu time    5.7701: real time    5.7758

 eigenvalue-minimisations  :    10
 total energy-change (2. order) :-0.6178953E+02  (-0.4643056E+02)
 number of electron      12.0000000 magnetization 
 augmentation part       12.0000000 magnetization 

 Free energy of the ion-electron system (eV)
  ---------------------------------------------------
  alpha Z        PSCENC =         0.01427242
  Ewald energy   TEWEN  =       638.28846798
  -Hartree energ DENC   =     -1227.10823426
  -exchange      EXHF   =         0.00000000
  -V(xc)+E(xc)   XCENC  =        58.72956589
  PAW double counting   =       605.44099397     -612.49690959
  entropy T*S    EENTRO =         0.00632525
  eigenvalues    EBANDS =      -158.05031644
  atomic energy  EATOM  =       865.90604224
  Solvation  Ediel_sol  =         0.00000000
  ---------------------------------------------------
  free energy    TOTEN  =       170.73020746 eV

  energy without entropy =      170.72388221  energy(sigma->0) =      170.72809904


--------------------------------------------------------------------------------------------------------




----------------------------------------- Iteration    1(   7)  ---------------------------------------


    EDDIAG:  cpu time    1.8037: real time    1.8049
  RMM-DIIS:  cpu time    3.8644: real time    3.8732
    ORTHCH:  cpu time    0.0770: real time    0.0774
       DOS:  cpu time    0.0010: real time    0.0004
    --------------------------------------------
      LOOP:  cpu time    5.7491: real time    5.7606

 eigenvalue-minimisations  :    10
 total energy-change (2. order) :-0.5540532E+02  (-0.6454943E+02)
 number of electron      12.0000000 magnetization 
 augmentation part       12.0000000 magnetization 

 Free energy of the ion-electron system (eV)
  ---------------------------------------------------
  alpha Z        PSCENC =         0.01427242
  Ewald energy   TEWEN  =       638.28846798
  -Hartree energ DENC   =     -1227.10823426
  -exchange      EXHF   =         0.00000000
  -V(xc)+E(xc)   XCENC  =        58.72956589
  PAW double counting   =       605.44099397     -612.49690959
  entropy T*S    EENTRO =         0.02573043
  eigenvalues    EBANDS =      -213.47504545
  atomic energy  EATOM  =       865.90604224
  Solvation  Ediel_sol  =         0.00000000
  ---------------------------------------------------
  free energy    TOTEN  =       115.32488363 eV

  energy without entropy =      115.29915320  energy(sigma->0) =      115.31630682


--------------------------------------------------------------------------------------------------------




----------------------------------------- Iteration    1(   8)  ---------------------------------------


    EDDIAG:  cpu time    1.8087: real time    1.8103
  RMM-DIIS:  cpu time    3.8814: real time    3.8868
    ORTHCH:  cpu time    0.0770: real time    0.0776
       DOS:  cpu time    0.0000: real time    0.0003
    --------------------------------------------
      LOOP:  cpu time    5.7701: real time    5.7794

 eigenvalue-minimisations  :    10
 total energy-change (2. order) :-0.1889657E+02  (-0.2386080E+02)
 number of electron      12.0000000 magnetization 
 augmentation part       12.0000000 magnetization 

 Free energy of the ion-electron system (eV)
  ---------------------------------------------------
  alpha Z        PSCENC =         0.01427242
  Ewald energy   TEWEN  =       638.28846798
  -Hartree energ DENC   =     -1227.10823426
  -exchange      EXHF   =         0.00000000
  -V(xc)+E(xc)   XCENC  =        58.72956589
  PAW double counting   =       605.44099397     -612.49690959
  entropy T*S    EENTRO =        -0.15937083
  eigenvalues    EBANDS =      -232.18650961
  atomic energy  EATOM  =       865.90604224
  Solvation  Ediel_sol  =         0.00000000
  ---------------------------------------------------
  free energy    TOTEN  =        96.42831821 eV

  energy without entropy =       96.58768904  energy(sigma->0) =       96.48144182


--------------------------------------------------------------------------------------------------------




----------------------------------------- Iteration    1(   9)  ---------------------------------------


    EDDIAG:  cpu time    1.8057: real time    1.8066
  RMM-DIIS:  cpu time   10.8234: real time   10.8305
    ORTHCH:  cpu time    0.0770: real time    0.0772
       DOS:  cpu time    0.0000: real time    0.0003
    --------------------------------------------
      LOOP:  cpu time   12.7081: real time   12.7192

 eigenvalue-minimisations  :    31
 total energy-change (2. order) :-0.4915131E+00  (-0.8604803E+00)
 number of electron      12.0000000 magnetization 
 augmentation part       12.0000000 magnetization 

 Free energy of the ion-electron system (eV)
  ---------------------------------------------------
  alpha Z        PSCENC =         0.01427242
  Ewald energy   TEWEN  =       638.28846798
  -Hartree energ DENC   =     -1227.10823426
  -exchange      EXHF   =         0.00000000
  -V(xc)+E(xc)   XCENC  =        58.72956589
  PAW double counting   =       605.44099397     -612.49690959
  entropy T*S    EENTRO =        -0.15225174
  eigenvalues    EBANDS =      -232.68514181
  atomic energy  EATOM  =       865.90604224
  Solvation  Ediel_sol  =         0.00000000
  ---------------------------------------------------
  free energy    TOTEN  =        95.93680510 eV

  energy without entropy =       96.08905684  energy(sigma->0) =       95.98755568


--------------------------------------------------------------------------------------------------------




----------------------------------------- Iteration    1(  10)  ---------------------------------------


    EDDIAG:  cpu time    1.8067: real time    1.8071
  RMM-DIIS:  cpu time   11.7632: real time   11.7735
    ORTHCH:  cpu time    0.0770: real time    0.0769
       DOS:  cpu time    0.0010: real time    0.0003
    --------------------------------------------
      LOOP:  cpu time   13.6499: real time   13.6621

 eigenvalue-minimisations  :    34
 total energy-change (2. order) : 0.6410775E+01  ( 0.4475641E+01)
 number of electron      12.0000000 magnetization 
 augmentation part       12.0000000 magnetization 

 Free energy of the ion-electron system (eV)
  ---------------------------------------------------
  alpha Z        PSCENC =         0.01427242
  Ewald energy   TEWEN  =       638.28846798
  -Hartree energ DENC   =     -1227.10823426
  -exchange      EXHF   =         0.00000000
  -V(xc)+E(xc)   XCENC  =        58.72956589
  PAW double counting   =       605.44099397     -612.49690959
  entropy T*S    EENTRO =        -0.12680660
  eigenvalues    EBANDS =      -226.29981208
  atomic energy  EATOM  =       865.90604224
  Solvation  Ediel_sol  =         0.00000000
  ---------------------------------------------------
  free energy    TOTEN  =       102.34757997 eV

  energy without entropy =      102.47438657  energy(sigma->0) =      102.38984884


--------------------------------------------------------------------------------------------------------




----------------------------------------- Iteration    1(  11)  ---------------------------------------


    EDDIAG:  cpu time    1.8087: real time    1.8095
  RMM-DIIS:  cpu time   11.7732: real time   11.7838
    ORTHCH:  cpu time    0.0740: real time    0.0743
       DOS:  cpu time    0.0010: real time    0.0010
    --------------------------------------------
      LOOP:  cpu time   13.6589: real time   13.6735

 eigenvalue-minimisations  :    34
 total energy-change (2. order) : 0.3427336E+00  (-0.1449601E+00)
 number of electron      12.0000000 magnetization 
 augmentation part       12.0000000 magnetization 

 Free energy of the ion-electron system (eV)
  ---------------------------------------------------
  alpha Z        PSCENC =         0.01427242
  Ewald energy   TEWEN  =       638.28846798
  -Hartree energ DENC   =     -1227.10823426
  -exchange      EXHF   =         0.00000000
  -V(xc)+E(xc)   XCENC  =        58.72956589
  PAW double counting   =       605.44099397     -612.49690959
  entropy T*S    EENTRO =        -0.13067298
  eigenvalues    EBANDS =      -225.95321213
  atomic energy  EATOM  =       865.90604224
  Solvation  Ediel_sol  =         0.00000000
  ---------------------------------------------------
  free energy    TOTEN  =       102.69031354 eV

  energy without entropy =      102.82098652  energy(sigma->0) =      102.73387120


--------------------------------------------------------------------------------------------------------




----------------------------------------- Iteration    1(  12)  ---------------------------------------


    EDDIAG:  cpu time    1.8037: real time    1.8043
  RMM-DIIS:  cpu time   11.1053: real time   11.1425
    ORTHCH:  cpu time    0.0780: real time    0.0778
       DOS:  cpu time    0.0000: real time    0.0003
    CHARGE:  cpu time    2.5086: real time    2.5176
    MIXING:  cpu time    0.3629: real time    0.3632
    --------------------------------------------
      LOOP:  cpu time   15.8626: real time   15.9122

 eigenvalue-minimisations  :    32
 total energy-change (2. order) : 0.2573693E-02  (-0.1722365E-01)
 number of electron      12.0000307 magnetization 
 augmentation part        2.0147883 magnetization 

 Broyden mixing:
  rms(total) = 0.19809E+01    rms(broyden)= 0.19486E+01
  rms(prec ) = 0.21279E+01
  weight for this iteration     100.00

 Free energy of the ion-electron system (eV)
  ---------------------------------------------------
  alpha Z        PSCENC =         0.01427242
  Ewald energy   TEWEN  =       638.28846798
  -Hartree energ DENC   =     -1227.10823426
  -exchange      EXHF   =         0.00000000
  -V(xc)+E(xc)   XCENC  =        58.72956589
  PAW double counting   =       605.44099397     -612.49690959
  entropy T*S    EENTRO =        -0.12236899
  eigenvalues    EBANDS =      -225.95894242
  atomic energy  EATOM  =       865.90604224
  Solvation  Ediel_sol  =         0.00000000
  ---------------------------------------------------
  free energy    TOTEN  =       102.69288724 eV

  energy without entropy =      102.81525623  energy(sigma->0) =      102.73367690


--------------------------------------------------------------------------------------------------------




----------------------------------------- Iteration    1(  13)  ---------------------------------------


    POTLOK:  cpu time   15.4996: real time   15.5563
    SETDIJ:  cpu time    0.0100: real time    0.0097
    EDDIAG:  cpu time    1.8067: real time    1.8108
  RMM-DIIS:  cpu time   11.1023: real time   11.1397
    ORTHCH:  cpu time    0.0770: real time    0.0773
       DOS:  cpu time    0.0000: real time    0.0004
    CHARGE:  cpu time    2.4836: real time    2.4905
    MIXING:  cpu time    0.4189: real time    0.4231
    --------------------------------------------
      LOOP:  cpu time   31.4032: real time   31.5140

 eigenvalue-minimisations  :    32
 total energy-change (2. order) : 0.3575623E+02  (-0.4081485E+01)
 number of electron      12.0000327 magnetization 
 augmentation part        2.1493919 magnetization 

 Broyden mixing:
  rms(total) = 0.12228E+01    rms(broyden)= 0.12187E+01
  rms(prec ) = 0.13435E+01
  weight for this iteration     100.00

 eigenvalues of (default mixing * dielectric matrix)
  average eigenvalue GAMMA=   2.0700
  2.0700

 Free energy of the ion-electron system (eV)
  ---------------------------------------------------
  alpha Z        PSCENC =         0.01427242
  Ewald energy   TEWEN  =       638.28846798
  -Hartree energ DENC   =     -1075.14295579
  -exchange      EXHF   =         0.00000000
  -V(xc)+E(xc)   XCENC  =        53.55399150
  PAW double counting   =       602.21581306     -608.86364285
  entropy T*S    EENTRO =        -0.05455245
  eigenvalues    EBANDS =      -337.46831722
  atomic energy  EATOM  =       865.90604224
  Solvation  Ediel_sol  =         0.00000000
  ---------------------------------------------------
  free energy    TOTEN  =       138.44911889 eV

  energy without entropy =      138.50367134  energy(sigma->0) =      138.46730304


--------------------------------------------------------------------------------------------------------




----------------------------------------- Iteration    1(  14)  ---------------------------------------


    POTLOK:  cpu time   15.3987: real time   15.4412
    SETDIJ:  cpu time    0.0140: real time    0.0136
    EDDIAG:  cpu time    1.8047: real time    1.8120
  RMM-DIIS:  cpu time   10.6684: real time   10.7222
    ORTHCH:  cpu time    0.0770: real time    0.0773
       DOS:  cpu time    0.0010: real time    0.0004
    CHARGE:  cpu time    2.4876: real time    2.4959
    MIXING:  cpu time    0.4529: real time    0.4557
    --------------------------------------------
      LOOP:  cpu time   30.9073: real time   31.0232

 eigenvalue-minimisations  :    31
 total energy-change (2. order) : 0.2442729E+02  (-0.6650312E+01)
 number of electron      12.0000341 magnetization 
 augmentation part        2.2443004 magnetization 

 Broyden mixing:
  rms(total) = 0.42378E+00    rms(broyden)= 0.42173E+00
  rms(prec ) = 0.48511E+00
  weight for this iteration     100.00

 eigenvalues of (default mixing * dielectric matrix)
  average eigenvalue GAMMA=   2.1615
  2.7425  1.5804

 Free energy of the ion-electron system (eV)
  ---------------------------------------------------
  alpha Z        PSCENC =         0.01427242
  Ewald energy   TEWEN  =       638.28846798
  -Hartree energ DENC   =      -887.36159863
  -exchange      EXHF   =         0.00000000
  -V(xc)+E(xc)   XCENC  =        47.27172988
  PAW double counting   =       630.68542186     -638.16160078
  entropy T*S    EENTRO =         0.02793416
  eigenvalues    EBANDS =      -493.79426355
  atomic energy  EATOM  =       865.90604224
  Solvation  Ediel_sol  =         0.00000000
  ---------------------------------------------------
  free energy    TOTEN  =       162.87640558 eV

  energy without entropy =      162.84847142  energy(sigma->0) =      162.86709420


--------------------------------------------------------------------------------------------------------




----------------------------------------- Iteration    1(  15)  ---------------------------------------


    POTLOK:  cpu time   15.3527: real time   15.3922
    SETDIJ:  cpu time    0.0140: real time    0.0133
    EDDIAG:  cpu time    1.8057: real time    1.8144
  RMM-DIIS:  cpu time   11.3453: real time   11.3853
    ORTHCH:  cpu time    0.0770: real time    0.0775
       DOS:  cpu time    0.0010: real time    0.0004
    CHARGE:  cpu time    2.4836: real time    2.4932
    MIXING:  cpu time    0.4909: real time    0.4922
    --------------------------------------------
      LOOP:  cpu time   31.5722: real time   31.6737

 eigenvalue-minimisations  :    33
 total energy-change (2. order) :-0.9100519E+00  (-0.6107257E+01)
 number of electron      12.0000345 magnetization 
 augmentation part        2.2690570 magnetization 

 Broyden mixing:
  rms(total) = 0.23570E+00    rms(broyden)= 0.23505E+00
  rms(prec ) = 0.27119E+00
  weight for this iteration     100.00

 eigenvalues of (default mixing * dielectric matrix)
  average eigenvalue GAMMA=   1.6875
  2.6508  1.8596  0.5520

 Free energy of the ion-electron system (eV)
  ---------------------------------------------------
  alpha Z        PSCENC =         0.01427242
  Ewald energy   TEWEN  =       638.28846798
  -Hartree energ DENC   =      -827.97629803
  -exchange      EXHF   =         0.00000000
  -V(xc)+E(xc)   XCENC  =        45.89391388
  PAW double counting   =       664.83729874     -673.29167100
  entropy T*S    EENTRO =        -0.03573629
  eigenvalues    EBANDS =      -551.66993628
  atomic energy  EATOM  =       865.90604224
  Solvation  Ediel_sol  =         0.00000000
  ---------------------------------------------------
  free energy    TOTEN  =       161.96635365 eV

  energy without entropy =      162.00208994  energy(sigma->0) =      161.97826574


--------------------------------------------------------------------------------------------------------




----------------------------------------- Iteration    1(  16)  ---------------------------------------


    POTLOK:  cpu time   15.3447: real time   15.4038
    SETDIJ:  cpu time    0.0070: real time    0.0075
    EDDIAG:  cpu time    1.8047: real time    1.8092
  RMM-DIIS:  cpu time   11.4123: real time   11.4590
    ORTHCH:  cpu time    0.0770: real time    0.0775
       DOS:  cpu time    0.0010: real time    0.0005
    CHARGE:  cpu time    2.4856: real time    2.4924
    MIXING:  cpu time    0.5389: real time    0.5415
    --------------------------------------------
      LOOP:  cpu time   31.6752: real time   31.7965

 eigenvalue-minimisations  :    33
 total energy-change (2. order) :-0.3404300E+01  (-0.4114228E+01)
 number of electron      12.0000345 magnetization 
 augmentation part        2.2696302 magnetization 

 Broyden mixing:
  rms(total) = 0.20888E+00    rms(broyden)= 0.20811E+00
  rms(prec ) = 0.24027E+00
  weight for this iteration     100.00

 eigenvalues of (default mixing * dielectric matrix)
  average eigenvalue GAMMA=   1.4471
  2.6068  1.8545  0.6636  0.6636

 Free energy of the ion-electron system (eV)
  ---------------------------------------------------
  alpha Z        PSCENC =         0.01427242
  Ewald energy   TEWEN  =       638.28846798
  -Hartree energ DENC   =      -830.56120620
  -exchange      EXHF   =         0.00000000
  -V(xc)+E(xc)   XCENC  =        46.17540251
  PAW double counting   =       682.75814125     -691.37116148
  entropy T*S    EENTRO =        -0.06134518
  eigenvalues    EBANDS =      -552.58655984
  atomic energy  EATOM  =       865.90604224
  Solvation  Ediel_sol  =         0.00000000
  ---------------------------------------------------
  free energy    TOTEN  =       158.56205370 eV

  energy without entropy =      158.62339888  energy(sigma->0) =      158.58250209


--------------------------------------------------------------------------------------------------------




----------------------------------------- Iteration    1(  17)  ---------------------------------------


    POTLOK:  cpu time   15.3607: real time   15.4055
    SETDIJ:  cpu time    0.0140: real time    0.0138
    EDDIAG:  cpu time    1.8007: real time    1.8096
  RMM-DIIS:  cpu time   12.1452: real time   12.1927
    ORTHCH:  cpu time    0.0770: real time    0.0770
       DOS:  cpu time    0.0000: real time    0.0003
    CHARGE:  cpu time    2.4806: real time    2.4915
    MIXING:  cpu time    0.5899: real time    0.5899
    --------------------------------------------
      LOOP:  cpu time   32.4721: real time   32.5856

 eigenvalue-minimisations  :    35
 total energy-change (2. order) :-0.2573586E+01  (-0.2687456E+01)
 number of electron      12.0000343 magnetization 
 augmentation part        2.2525090 magnetization 

 Broyden mixing:
  rms(total) = 0.25204E+00    rms(broyden)= 0.25090E+00
  rms(prec ) = 0.27780E+00
  weight for this iteration     100.00

 eigenvalues of (default mixing * dielectric matrix)
  average eigenvalue GAMMA=   1.3064
  2.5875  1.7235  0.9544  0.9544  0.3122

 Free energy of the ion-electron system (eV)
  ---------------------------------------------------
  alpha Z        PSCENC =         0.01427242
  Ewald energy   TEWEN  =       638.28846798
  -Hartree energ DENC   =      -833.59079012
  -exchange      EXHF   =         0.00000000
  -V(xc)+E(xc)   XCENC  =        46.31551077
  PAW double counting   =       689.77935244     -698.36501231
  entropy T*S    EENTRO =        -0.02205659
  eigenvalues    EBANDS =      -552.33731888
  atomic energy  EATOM  =       865.90604224
  Solvation  Ediel_sol  =         0.00000000
  ---------------------------------------------------
  free energy    TOTEN  =       155.98846794 eV

  energy without entropy =      156.01052454  energy(sigma->0) =      155.99582014


--------------------------------------------------------------------------------------------------------




----------------------------------------- Iteration    1(  18)  ---------------------------------------


    POTLOK:  cpu time   15.3607: real time   15.4117
    SETDIJ:  cpu time    0.0090: real time    0.0090
    EDDIAG:  cpu time    1.7937: real time    1.8079
  RMM-DIIS:  cpu time   11.3733: real time   11.4193
    ORTHCH:  cpu time    0.0780: real time    0.0773
       DOS:  cpu time    0.0000: real time    0.0004
    CHARGE:  cpu time    2.4846: real time    2.4948
    MIXING:  cpu time    0.6409: real time    0.6406
    --------------------------------------------
      LOOP:  cpu time   31.7422: real time   31.8674

 eigenvalue-minimisations  :    33
 total energy-change (2. order) : 0.1217546E+01  ( 0.8185852E+00)
 number of electron      12.0000340 magnetization 
 augmentation part        2.2365561 magnetization 

 Broyden mixing:
  rms(total) = 0.24020E+00    rms(broyden)= 0.23947E+00
  rms(prec ) = 0.26660E+00
  weight for this iteration     100.00

 eigenvalues of (default mixing * dielectric matrix)
  average eigenvalue GAMMA=   1.1087
  2.5742  1.7323  0.9622  0.9622  0.2796  0.1415

 Free energy of the ion-electron system (eV)
  ---------------------------------------------------
  alpha Z        PSCENC =         0.01427242
  Ewald energy   TEWEN  =       638.28846798
  -Hartree energ DENC   =      -836.12160055
  -exchange      EXHF   =         0.00000000
  -V(xc)+E(xc)   XCENC  =        46.40144750
  PAW double counting   =       692.90860186     -701.43106169
  entropy T*S    EENTRO =        -0.07186897
  eigenvalues    EBANDS =      -548.68828712
  atomic energy  EATOM  =       865.90604224
  Solvation  Ediel_sol  =         0.00000000
  ---------------------------------------------------
  free energy    TOTEN  =       157.20601367 eV

  energy without entropy =      157.27788265  energy(sigma->0) =      157.22997000


--------------------------------------------------------------------------------------------------------




----------------------------------------- Iteration    1(  19)  ---------------------------------------


    POTLOK:  cpu time   15.3587: real time   15.4112
    SETDIJ:  cpu time    0.0100: real time    0.0100
    EDDIAG:  cpu time    1.8017: real time    1.8110
  RMM-DIIS:  cpu time   12.3801: real time   12.4377
    ORTHCH:  cpu time    0.0770: real time    0.0770
       DOS:  cpu time    0.0010: real time    0.0004
    CHARGE:  cpu time    2.4836: real time    2.4897
    MIXING:  cpu time    0.7009: real time    0.7043
    --------------------------------------------
      LOOP:  cpu time   32.8150: real time   32.9460

 eigenvalue-minimisations  :    36
 total energy-change (2. order) : 0.1648371E+01  ( 0.1609954E+01)
 number of electron      12.0000333 magnetization 
 augmentation part        2.1881755 magnetization 

 Broyden mixing:
  rms(total) = 0.27608E+00    rms(broyden)= 0.27427E+00
  rms(prec ) = 0.30024E+00
  weight for this iteration     100.00

 eigenvalues of (default mixing * dielectric matrix)
  average eigenvalue GAMMA=   1.0898
  2.5671  1.8038  1.0053  1.0053  0.8230  0.2119  0.2119

 Free energy of the ion-electron system (eV)
  ---------------------------------------------------
  alpha Z        PSCENC =         0.01427242
  Ewald energy   TEWEN  =       638.28846798
  -Hartree energ DENC   =      -834.30060878
  -exchange      EXHF   =         0.00000000
  -V(xc)+E(xc)   XCENC  =        46.37137715
  PAW double counting   =       689.71013408     -698.32465392
  entropy T*S    EENTRO =        -0.07630501
  eigenvalues    EBANDS =      -548.73434174
  atomic energy  EATOM  =       865.90604224
  Solvation  Ediel_sol  =         0.00000000
  ---------------------------------------------------
  free energy    TOTEN  =       158.85438442 eV

  energy without entropy =      158.93068943  energy(sigma->0) =      158.87981942


--------------------------------------------------------------------------------------------------------




----------------------------------------- Iteration    1(  20)  ---------------------------------------


    POTLOK:  cpu time   15.3537: real time   15.4059
    SETDIJ:  cpu time    0.0130: real time    0.0133
    EDDIAG:  cpu time    1.7977: real time    1.8064
  RMM-DIIS:  cpu time   11.1393: real time   11.1811
    ORTHCH:  cpu time    0.0770: real time    0.0777
       DOS:  cpu time    0.0000: real time    0.0004
    CHARGE:  cpu time    2.4816: real time    2.4926
    MIXING:  cpu time    0.7599: real time    0.7705
    --------------------------------------------
      LOOP:  cpu time   31.6272: real time   31.7534

 eigenvalue-minimisations  :    32
 total energy-change (2. order) :-0.6690483E-01  (-0.2374859E+00)
 number of electron      12.0000333 magnetization 
 augmentation part        2.1884651 magnetization 

 Broyden mixing:
  rms(total) = 0.32923E+00    rms(broyden)= 0.32903E+00
  rms(prec ) = 0.35575E+00
  weight for this iteration     100.00

 eigenvalues of (default mixing * dielectric matrix)
  average eigenvalue GAMMA=   1.4640
  2.7842  2.7842  2.6472  1.4565  0.7540  0.7540  0.2659  0.2659

 Free energy of the ion-electron system (eV)
  ---------------------------------------------------
  alpha Z        PSCENC =         0.01427242
  Ewald energy   TEWEN  =       638.28846798
  -Hartree energ DENC   =      -827.02695192
  -exchange      EXHF   =         0.00000000
  -V(xc)+E(xc)   XCENC  =        46.19332061
  PAW double counting   =       681.92314356     -690.66191271
  entropy T*S    EENTRO =        -0.06528089
  eigenvalues    EBANDS =      -555.78362170
  atomic energy  EATOM  =       865.90604224
  Solvation  Ediel_sol  =         0.00000000
  ---------------------------------------------------
  free energy    TOTEN  =       158.78747959 eV

  energy without entropy =      158.85276048  energy(sigma->0) =      158.80923988


--------------------------------------------------------------------------------------------------------




----------------------------------------- Iteration    1(  21)  ---------------------------------------


    POTLOK:  cpu time   15.3867: real time   15.4295
    SETDIJ:  cpu time    0.0150: real time    0.0149
    EDDIAG:  cpu time    1.7987: real time    1.8078
  RMM-DIIS:  cpu time   11.1143: real time   11.1553
    ORTHCH:  cpu time    0.0770: real time    0.0775
       DOS:  cpu time    0.0010: real time    0.0005
    CHARGE:  cpu time    2.4816: real time    2.4938
    MIXING:  cpu time    0.8399: real time    0.8400
    --------------------------------------------
      LOOP:  cpu time   31.7172: real time   31.8246

 eigenvalue-minimisations  :    32
 total energy-change (2. order) :-0.5467673E+00  (-0.6583900E+00)
 number of electron      12.0000326 magnetization 
 augmentation part        2.1459805 magnetization 

 Broyden mixing:
  rms(total) = 0.45904E+00    rms(broyden)= 0.45877E+00
  rms(prec ) = 0.47208E+00
  weight for this iteration     100.00

 eigenvalues of (default mixing * dielectric matrix)
  average eigenvalue GAMMA=   1.4229
  3.2753  3.2753  2.4955  0.9854  0.9854  0.6239  0.6239  0.2707  0.2707

 Free energy of the ion-electron system (eV)
  ---------------------------------------------------
  alpha Z        PSCENC =         0.01427242
  Ewald energy   TEWEN  =       638.28846798
  -Hartree energ DENC   =      -884.94490870
  -exchange      EXHF   =         0.00000000
  -V(xc)+E(xc)   XCENC  =        48.95500411
  PAW double counting   =       786.09257016     -793.81364171
  entropy T*S    EENTRO =        -0.07651892
  eigenvalues    EBANDS =      -502.18057534
  atomic energy  EATOM  =       865.90604224
  Solvation  Ediel_sol  =         0.00000000
  ---------------------------------------------------
  free energy    TOTEN  =       158.24071224 eV

  energy without entropy =      158.31723115  energy(sigma->0) =      158.26621854


--------------------------------------------------------------------------------------------------------




----------------------------------------- Iteration    1(  22)  ---------------------------------------


    POTLOK:  cpu time   15.3677: real time   15.4173
    SETDIJ:  cpu time    0.0080: real time    0.0076
    EDDIAG:  cpu time    1.8027: real time    1.8108
  RMM-DIIS:  cpu time   12.0672: real time   12.1141
    ORTHCH:  cpu time    0.0770: real time    0.0773
       DOS:  cpu time    0.0000: real time    0.0004
    CHARGE:  cpu time    2.4816: real time    2.4903
    MIXING:  cpu time    0.9169: real time    0.9209
    --------------------------------------------
      LOOP:  cpu time   32.7240: real time   32.8435

 eigenvalue-minimisations  :    35
 total energy-change (2. order) : 0.8820875E-01  ( 0.3703550E-01)
 number of electron      12.0000327 magnetization 
 augmentation part        2.1462486 magnetization 

 Broyden mixing:
  rms(total) = 0.48296E+00    rms(broyden)= 0.48290E+00
  rms(prec ) = 0.49671E+00
  weight for this iteration     100.00

 eigenvalues of (default mixing * dielectric matrix)
  average eigenvalue GAMMA=   1.2887
  3.1605  3.1605  2.5017  0.9203  0.9203  0.8175  0.4338  0.4338  0.2692  0.2692

 Free energy of the ion-electron system (eV)
  ---------------------------------------------------
  alpha Z        PSCENC =         0.01427242
  Ewald energy   TEWEN  =       638.28846798
  -Hartree energ DENC   =      -884.83719345
  -exchange      EXHF   =         0.00000000
  -V(xc)+E(xc)   XCENC  =        49.11998634
  PAW double counting   =       791.85222034     -799.48475043
  entropy T*S    EENTRO =         0.02482796
  eigenvalues    EBANDS =      -502.55495241
  atomic energy  EATOM  =       865.90604224
  Solvation  Ediel_sol  =         0.00000000
  ---------------------------------------------------
  free energy    TOTEN  =       158.32892099 eV

  energy without entropy =      158.30409303  energy(sigma->0) =      158.32064501


--------------------------------------------------------------------------------------------------------




----------------------------------------- Iteration    1(  23)  ---------------------------------------


    POTLOK:  cpu time   15.3637: real time   15.4228
    SETDIJ:  cpu time    0.0060: real time    0.0051
    EDDIAG:  cpu time    1.8027: real time    1.8065
  RMM-DIIS:  cpu time   11.7642: real time   11.8099
    ORTHCH:  cpu time    0.0780: real time    0.0780
       DOS:  cpu time    0.0010: real time    0.0005
    CHARGE:  cpu time    2.4796: real time    2.4892
    MIXING:  cpu time    0.9988: real time    1.0014
    --------------------------------------------
      LOOP:  cpu time   32.4981: real time   32.6183

 eigenvalue-minimisations  :    34
 total energy-change (2. order) : 0.1995015E+00  ( 0.1245735E+00)
 number of electron      12.0000327 magnetization 
 augmentation part        2.1481021 magnetization 

 Broyden mixing:
  rms(total) = 0.47616E+00    rms(broyden)= 0.47613E+00
  rms(prec ) = 0.48943E+00
  weight for this iteration     100.00

 eigenvalues of (default mixing * dielectric matrix)
  average eigenvalue GAMMA=   1.2706
  3.2766  3.2766  2.5100  0.9322  0.9322  0.8197  0.5805  0.5805  0.2696  0.2696
  0.5287

 Free energy of the ion-electron system (eV)
  ---------------------------------------------------
  alpha Z        PSCENC =         0.01427242
  Ewald energy   TEWEN  =       638.28846798
  -Hartree energ DENC   =      -881.28329613
  -exchange      EXHF   =         0.00000000
  -V(xc)+E(xc)   XCENC  =        48.94889608
  PAW double counting   =       787.37402009     -795.04642118
  entropy T*S    EENTRO =        -0.02636083
  eigenvalues    EBANDS =      -505.64719815
  atomic energy  EATOM  =       865.90604224
  Solvation  Ediel_sol  =         0.00000000
  ---------------------------------------------------
  free energy    TOTEN  =       158.52842253 eV

  energy without entropy =      158.55478336  energy(sigma->0) =      158.53720948


--------------------------------------------------------------------------------------------------------




----------------------------------------- Iteration    1(  24)  ---------------------------------------


    POTLOK:  cpu time   15.3647: real time   15.4068
    SETDIJ:  cpu time    0.0110: real time    0.0112
    EDDIAG:  cpu time    1.7997: real time    1.8074
  RMM-DIIS:  cpu time   12.3821: real time   12.4359
    ORTHCH:  cpu time    0.0780: real time    0.0779
       DOS:  cpu time    0.0010: real time    0.0004
    CHARGE:  cpu time    2.4826: real time    2.4927
    MIXING:  cpu time    1.0858: real time    1.0906
    --------------------------------------------
      LOOP:  cpu time   33.2080: real time   33.3285

 eigenvalue-minimisations  :    36
 total energy-change (2. order) :-0.3812863E+00  (-0.4005978E+00)
 number of electron      12.0000326 magnetization 
 augmentation part        2.1459816 magnetization 

 Broyden mixing:
  rms(total) = 0.53802E+00    rms(broyden)= 0.53800E+00
  rms(prec ) = 0.55405E+00
  weight for this iteration     100.00

 eigenvalues of (default mixing * dielectric matrix)
  average eigenvalue GAMMA=   1.2214
  3.1301  3.1301  2.4973  0.7794  0.7794  0.9679  0.9679  0.6865  0.5899  0.5899
  0.2695  0.2695

 Free energy of the ion-electron system (eV)
  ---------------------------------------------------
  alpha Z        PSCENC =         0.01427242
  Ewald energy   TEWEN  =       638.28846798
  -Hartree energ DENC   =      -888.97803617
  -exchange      EXHF   =         0.00000000
  -V(xc)+E(xc)   XCENC  =        49.35127823
  PAW double counting   =       797.36624549     -804.93110240
  entropy T*S    EENTRO =         0.05347751
  eigenvalues    EBANDS =      -498.92350911
  atomic energy  EATOM  =       865.90604224
  Solvation  Ediel_sol  =         0.00000000
  ---------------------------------------------------
  free energy    TOTEN  =       158.14713620 eV

  energy without entropy =      158.09365868  energy(sigma->0) =      158.12931036


--------------------------------------------------------------------------------------------------------




----------------------------------------- Iteration    1(  25)  ---------------------------------------


    POTLOK:  cpu time   15.3527: real time   15.4009
    SETDIJ:  cpu time    0.0140: real time    0.0148
    EDDIAG:  cpu time    1.8037: real time    1.8124
  RMM-DIIS:  cpu time   11.4343: real time   11.4738
    ORTHCH:  cpu time    0.0780: real time    0.0777
       DOS:  cpu time    0.0000: real time    0.0004
    CHARGE:  cpu time    2.4766: real time    2.4924
    MIXING:  cpu time    1.1868: real time    1.1911
    --------------------------------------------
      LOOP:  cpu time   32.3511: real time   32.4689

 eigenvalue-minimisations  :    33
 total energy-change (2. order) :-0.1668025E+00  (-0.1863026E+00)
 number of electron      12.0000327 magnetization 
 augmentation part        2.1476350 magnetization 

 Broyden mixing:
  rms(total) = 0.51874E+00    rms(broyden)= 0.51873E+00
  rms(prec ) = 0.53466E+00
  weight for this iteration     100.00

 eigenvalues of (default mixing * dielectric matrix)
  average eigenvalue GAMMA=   1.2003
  3.0575  3.0575  2.4780  1.1258  1.1258  0.9962  0.9962  0.7534  0.6133  0.6133
  0.2689  0.2689  0.2497

 Free energy of the ion-electron system (eV)
  ---------------------------------------------------
  alpha Z        PSCENC =         0.01427242
  Ewald energy   TEWEN  =       638.28846798
  -Hartree energ DENC   =      -884.37759998
  -exchange      EXHF   =         0.00000000
  -V(xc)+E(xc)   XCENC  =        49.12728958
  PAW double counting   =       792.13731804     -799.74079127
  entropy T*S    EENTRO =         0.08065796
  eigenvalues    EBANDS =      -503.45532326
  atomic energy  EATOM  =       865.90604224
  Solvation  Ediel_sol  =         0.00000000
  ---------------------------------------------------
  free energy    TOTEN  =       157.98033370 eV

  energy without entropy =      157.89967575  energy(sigma->0) =      157.95344772


--------------------------------------------------------------------------------------------------------




----------------------------------------- Iteration    1(  26)  ---------------------------------------


    POTLOK:  cpu time   15.3747: real time   15.4270
    SETDIJ:  cpu time    0.0090: real time    0.0089
    EDDIAG:  cpu time    1.8027: real time    1.8100
  RMM-DIIS:  cpu time   11.0073: real time   11.0476
    ORTHCH:  cpu time    0.0790: real time    0.0781
       DOS:  cpu time    0.0000: real time    0.0003
    CHARGE:  cpu time    2.4796: real time    2.4878
    MIXING:  cpu time    1.2908: real time    1.2948
    --------------------------------------------
      LOOP:  cpu time   32.0471: real time   32.1598

 eigenvalue-minimisations  :    32
 total energy-change (2. order) :-0.7400050E+00  (-0.8841330E+00)
 number of electron      12.0000328 magnetization 
 augmentation part        2.1549278 magnetization 

 Broyden mixing:
  rms(total) = 0.43437E+00    rms(broyden)= 0.43437E+00
  rms(prec ) = 0.45087E+00
  weight for this iteration     100.00

 eigenvalues of (default mixing * dielectric matrix)
  average eigenvalue GAMMA=   1.1788
  3.0032  3.0032  2.5228  1.3496  1.3496  1.0017  1.0017  0.8034  0.5546  0.5546
  0.2692  0.2692  0.4102  0.4102

 Free energy of the ion-electron system (eV)
  ---------------------------------------------------
  alpha Z        PSCENC =         0.01427242
  Ewald energy   TEWEN  =       638.28846798
  -Hartree energ DENC   =      -874.67729778
  -exchange      EXHF   =         0.00000000
  -V(xc)+E(xc)   XCENC  =        48.62211868
  PAW double counting   =       780.23189436     -787.91926824
  entropy T*S    EENTRO =         0.01164957
  eigenvalues    EBANDS =      -513.23755051
  atomic energy  EATOM  =       865.90604224
  Solvation  Ediel_sol  =         0.00000000
  ---------------------------------------------------
  free energy    TOTEN  =       157.24032870 eV

  energy without entropy =      157.22867914  energy(sigma->0) =      157.23644552


--------------------------------------------------------------------------------------------------------




----------------------------------------- Iteration    1(  27)  ---------------------------------------


    POTLOK:  cpu time   15.3807: real time   15.4380
    SETDIJ:  cpu time    0.0090: real time    0.0087
    EDDIAG:  cpu time    1.8007: real time    1.8066
  RMM-DIIS:  cpu time    8.9716: real time    9.0040
    ORTHCH:  cpu time    0.0780: real time    0.0779
       DOS:  cpu time    0.0000: real time    0.0003
    CHARGE:  cpu time    2.4846: real time    2.4924
    MIXING:  cpu time    1.3918: real time    1.3985
    --------------------------------------------
      LOOP:  cpu time   30.1184: real time   30.2315

 eigenvalue-minimisations  :    26
 total energy-change (2. order) :-0.1504144E+01  (-0.1624472E+01)
 number of electron      12.0000328 magnetization 
 augmentation part        2.1591157 magnetization 

 Broyden mixing:
  rms(total) = 0.38032E+00    rms(broyden)= 0.38031E+00
  rms(prec ) = 0.40214E+00
  weight for this iteration     100.00

 eigenvalues of (default mixing * dielectric matrix)
  average eigenvalue GAMMA=   1.1077
  3.0300  3.0300  2.5283  1.3243  1.3243  0.9774  0.9774  0.7982  0.5567  0.5567
  0.4125  0.4125  0.2694  0.2694  0.1480

 Free energy of the ion-electron system (eV)
  ---------------------------------------------------
  alpha Z        PSCENC =         0.01427242
  Ewald energy   TEWEN  =       638.28846798
  -Hartree energ DENC   =      -867.00222719
  -exchange      EXHF   =         0.00000000
  -V(xc)+E(xc)   XCENC  =        48.24580146
  PAW double counting   =       771.26301540     -779.01974764
  entropy T*S    EENTRO =         0.01159581
  eigenvalues    EBANDS =      -521.97103528
  atomic energy  EATOM  =       865.90604224
  Solvation  Ediel_sol  =         0.00000000
  ---------------------------------------------------
  free energy    TOTEN  =       155.73618519 eV

  energy without entropy =      155.72458938  energy(sigma->0) =      155.73231992


--------------------------------------------------------------------------------------------------------




----------------------------------------- Iteration    1(  28)  ---------------------------------------


    POTLOK:  cpu time   15.3867: real time   15.4457
    SETDIJ:  cpu time    0.0130: real time    0.0134
    EDDIAG:  cpu time    1.7967: real time    1.8045
  RMM-DIIS:  cpu time   10.3334: real time   10.3684
    ORTHCH:  cpu time    0.0780: real time    0.0779
       DOS:  cpu time    0.0010: real time    0.0004
    CHARGE:  cpu time    2.4806: real time    2.4927
    MIXING:  cpu time    1.5068: real time    1.5113
    --------------------------------------------
      LOOP:  cpu time   31.5992: real time   31.7196

 eigenvalue-minimisations  :    30
 total energy-change (2. order) :-0.2182309E+01  (-0.2189424E+01)
 number of electron      12.0000331 magnetization 
 augmentation part        2.1737274 magnetization 

 Broyden mixing:
  rms(total) = 0.37752E+00    rms(broyden)= 0.37750E+00
  rms(prec ) = 0.40299E+00
  weight for this iteration     100.00

 eigenvalues of (default mixing * dielectric matrix)
  average eigenvalue GAMMA=   1.0710
  3.0244  3.0244  2.4546  1.3452  1.3452  0.9968  0.9968  0.8439  0.5786  0.5786
  0.4011  0.4011  0.2690  0.2690  0.3037  0.3037

 Free energy of the ion-electron system (eV)
  ---------------------------------------------------
  alpha Z        PSCENC =         0.01427242
  Ewald energy   TEWEN  =       638.28846798
  -Hartree energ DENC   =      -868.10869099
  -exchange      EXHF   =         0.00000000
  -V(xc)+E(xc)   XCENC  =        48.25553365
  PAW double counting   =       770.45788398     -778.21921816
  entropy T*S    EENTRO =         0.01159581
  eigenvalues    EBANDS =      -523.05201121
  atomic energy  EATOM  =       865.90604224
  Solvation  Ediel_sol  =         0.00000000
  ---------------------------------------------------
  free energy    TOTEN  =       153.55387572 eV

  energy without entropy =      153.54227991  energy(sigma->0) =      153.55001045


--------------------------------------------------------------------------------------------------------




----------------------------------------- Iteration    1(  29)  ---------------------------------------


    POTLOK:  cpu time   15.3967: real time   15.4479
    SETDIJ:  cpu time    0.0100: real time    0.0100
    EDDIAG:  cpu time    1.8057: real time    1.8094
  RMM-DIIS:  cpu time    9.4566: real time    9.4992
    ORTHCH:  cpu time    0.0770: real time    0.0788
       DOS:  cpu time    0.0000: real time    0.0003
    CHARGE:  cpu time    2.4846: real time    2.4902
    MIXING:  cpu time    1.6288: real time    1.6368
    --------------------------------------------
      LOOP:  cpu time   30.8623: real time   30.9772

 eigenvalue-minimisations  :    27
 total energy-change (2. order) : 0.5861147E+00  ( 0.4764583E+00)
 number of electron      12.0000329 magnetization 
 augmentation part        2.1626117 magnetization 

 Broyden mixing:
  rms(total) = 0.37770E+00    rms(broyden)= 0.37768E+00
  rms(prec ) = 0.40414E+00
  weight for this iteration     100.00

 eigenvalues of (default mixing * dielectric matrix)
  average eigenvalue GAMMA=   1.0260
  3.0070  3.0070  2.5456  1.3375  1.3375  0.9899  0.9899  0.8332  0.5791  0.5791
  0.4024  0.4024  0.2692  0.2692  0.3296  0.3296  0.2337

 Free energy of the ion-electron system (eV)
  ---------------------------------------------------
  alpha Z        PSCENC =         0.01427242
  Ewald energy   TEWEN  =       638.28846798
  -Hartree energ DENC   =      -868.58699285
  -exchange      EXHF   =         0.00000000
  -V(xc)+E(xc)   XCENC  =        48.25082481
  PAW double counting   =       770.17055810     -777.94548557
  entropy T*S    EENTRO =         0.01159581
  eigenvalues    EBANDS =      -521.96929254
  atomic energy  EATOM  =       865.90604224
  Solvation  Ediel_sol  =         0.00000000
  ---------------------------------------------------
  free energy    TOTEN  =       154.13999040 eV

  energy without entropy =      154.12839459  energy(sigma->0) =      154.13612513


--------------------------------------------------------------------------------------------------------




----------------------------------------- Iteration    1(  30)  ---------------------------------------


    POTLOK:  cpu time   15.3927: real time   15.4376
    SETDIJ:  cpu time    0.0150: real time    0.0146
    EDDIAG:  cpu time    1.8017: real time    1.8064
  RMM-DIIS:  cpu time   10.0775: real time   10.1123
    ORTHCH:  cpu time    0.0780: real time    0.0783
       DOS:  cpu time    0.0000: real time    0.0003
    CHARGE:  cpu time    2.4806: real time    2.4907
    MIXING:  cpu time    1.7477: real time    1.7571
    --------------------------------------------
      LOOP:  cpu time   31.5952: real time   31.7041

 eigenvalue-minimisations  :    29
 total energy-change (2. order) :-0.1204829E+01  (-0.1239970E+01)
 number of electron      12.0000331 magnetization 
 augmentation part        2.1756298 magnetization 

 Broyden mixing:
  rms(total) = 0.37843E+00    rms(broyden)= 0.37841E+00
  rms(prec ) = 0.40644E+00
  weight for this iteration     100.00

 eigenvalues of (default mixing * dielectric matrix)
  average eigenvalue GAMMA=   0.9809
  3.0053  3.0053  2.5762  1.3450  1.3450  0.9544  0.9544  0.8343  0.5741  0.5741
  0.4792  0.4792  0.2727  0.2727  0.2691  0.2691  0.2821  0.1634

 Free energy of the ion-electron system (eV)
  ---------------------------------------------------
  alpha Z        PSCENC =         0.01427242
  Ewald energy   TEWEN  =       638.28846798
  -Hartree energ DENC   =      -868.73185065
  -exchange      EXHF   =         0.00000000
  -V(xc)+E(xc)   XCENC  =        48.25854317
  PAW double counting   =       770.67113893     -778.43690769
  entropy T*S    EENTRO =         0.01159581
  eigenvalues    EBANDS =      -523.04614041
  atomic energy  EATOM  =       865.90604224
  Solvation  Ediel_sol  =         0.00000000
  ---------------------------------------------------
  free energy    TOTEN  =       152.93516180 eV

  energy without entropy =      152.92356599  energy(sigma->0) =      152.93129653


--------------------------------------------------------------------------------------------------------




----------------------------------------- Iteration    1(  31)  ---------------------------------------


    POTLOK:  cpu time   15.3947: real time   15.4419
    SETDIJ:  cpu time    0.0130: real time    0.0129
    EDDIAG:  cpu time    1.8077: real time    1.8144
  RMM-DIIS:  cpu time    8.9726: real time    9.0049
    ORTHCH:  cpu time    0.0780: real time    0.0783
       DOS:  cpu time    0.0010: real time    0.0004
    CHARGE:  cpu time    2.4876: real time    2.4931
    MIXING:  cpu time    1.8747: real time    1.8832
    --------------------------------------------
      LOOP:  cpu time   30.6323: real time   30.7339

 eigenvalue-minimisations  :    26
 total energy-change (2. order) : 0.4327515E+00  ( 0.2523576E+00)
 number of electron      12.0000330 magnetization 
 augmentation part        2.1698887 magnetization 

 Broyden mixing:
  rms(total) = 0.35946E+00    rms(broyden)= 0.35945E+00
  rms(prec ) = 0.38814E+00
  weight for this iteration     100.00

 eigenvalues of (default mixing * dielectric matrix)
  average eigenvalue GAMMA=   0.9605
  3.0337  3.0337  2.5869  1.3388  1.3388  0.9712  0.9712  0.8341  0.5671  0.5671
  0.4979  0.4979  0.3868  0.3868  0.2690  0.2690  0.2572  0.2572  0.1857

 Free energy of the ion-electron system (eV)
  ---------------------------------------------------
  alpha Z        PSCENC =         0.01427242
  Ewald energy   TEWEN  =       638.28846798
  -Hartree energ DENC   =      -866.53395704
  -exchange      EXHF   =         0.00000000
  -V(xc)+E(xc)   XCENC  =        48.11914193
  PAW double counting   =       767.09049365     -774.88471004
  entropy T*S    EENTRO =         0.01159844
  eigenvalues    EBANDS =      -524.64343629
  atomic energy  EATOM  =       865.90604224
  Solvation  Ediel_sol  =         0.00000000
  ---------------------------------------------------
  free energy    TOTEN  =       153.36791330 eV

  energy without entropy =      153.35631485  energy(sigma->0) =      153.36404715


--------------------------------------------------------------------------------------------------------




----------------------------------------- Iteration    1(  32)  ---------------------------------------


    POTLOK:  cpu time   15.3957: real time   15.4549
    SETDIJ:  cpu time    0.0080: real time    0.0083
    EDDIAG:  cpu time    1.8087: real time    1.8131
  RMM-DIIS:  cpu time    9.3616: real time    9.3930
    ORTHCH:  cpu time    0.0780: real time    0.0779
       DOS:  cpu time    0.0000: real time    0.0005
    CHARGE:  cpu time    2.4816: real time    2.4884
    MIXING:  cpu time    2.0147: real time    2.0224
    --------------------------------------------
      LOOP:  cpu time   31.1533: real time   31.2639

 eigenvalue-minimisations  :    27
 total energy-change (2. order) :-0.2108739E+01  (-0.5324105E+00)
 number of electron      12.0000332 magnetization 
 augmentation part        2.1826982 magnetization 

 Broyden mixing:
  rms(total) = 0.37844E+00    rms(broyden)= 0.37835E+00
  rms(prec ) = 0.40721E+00
  weight for this iteration     100.00

 eigenvalues of (default mixing * dielectric matrix)
  average eigenvalue GAMMA=   0.9141
  3.0107  3.0107  2.5705  1.3634  1.3634  0.9707  0.9707  0.8440  0.5669  0.5669
  0.4894  0.4894  0.3823  0.3823  0.2690  0.2690  0.2558  0.2558  0.1910  0.0609

 Free energy of the ion-electron system (eV)
  ---------------------------------------------------
  alpha Z        PSCENC =         0.01427242
  Ewald energy   TEWEN  =       638.28846798
  -Hartree energ DENC   =      -866.59987735
  -exchange      EXHF   =         0.00000000
  -V(xc)+E(xc)   XCENC  =        48.11739325
  PAW double counting   =       767.23998514     -775.02484215
  entropy T*S    EENTRO =         0.01161658
  eigenvalues    EBANDS =      -526.69388357
  atomic energy  EATOM  =       865.90604224
  Solvation  Ediel_sol  =         0.00000000
  ---------------------------------------------------
  free energy    TOTEN  =       151.25917454 eV

  energy without entropy =      151.24755796  energy(sigma->0) =      151.25530235


--------------------------------------------------------------------------------------------------------




----------------------------------------- Iteration    1(  33)  ---------------------------------------


    POTLOK:  cpu time   15.4087: real time   15.4578
    SETDIJ:  cpu time    0.0080: real time    0.0076
    EDDIAG:  cpu time    1.8057: real time    1.8132
  RMM-DIIS:  cpu time    9.0166: real time    9.0574
    ORTHCH:  cpu time    0.0770: real time    0.0773
       DOS:  cpu time    0.0000: real time    0.0003
    CHARGE:  cpu time    2.4816: real time    2.4899
    MIXING:  cpu time    2.1577: real time    2.1642
    --------------------------------------------
      LOOP:  cpu time   30.9583: real time   31.0725

 eigenvalue-minimisations  :    26
 total energy-change (2. order) :-0.5357212E+01  (-0.3858635E+00)
 number of electron      12.0000337 magnetization 
 augmentation part        2.2159308 magnetization 

 Broyden mixing:
  rms(total) = 0.38706E+00    rms(broyden)= 0.38690E+00
  rms(prec ) = 0.43251E+00
  weight for this iteration     100.00

 eigenvalues of (default mixing * dielectric matrix)
  average eigenvalue GAMMA=   0.8767
  2.9984  2.9984  2.5925  1.3611  1.3611  0.9707  0.9707  0.8464  0.5206  0.5206
  0.5659  0.5659  0.3858  0.3858  0.2690  0.2690  0.2568  0.2568  0.1949  0.0237
  0.0962

 Free energy of the ion-electron system (eV)
  ---------------------------------------------------
  alpha Z        PSCENC =         0.01427242
  Ewald energy   TEWEN  =       638.28846798
  -Hartree energ DENC   =      -863.56003043
  -exchange      EXHF   =         0.00000000
  -V(xc)+E(xc)   XCENC  =        47.92691740
  PAW double counting   =       761.76403313     -769.59408831
  entropy T*S    EENTRO =         0.01159581
  eigenvalues    EBANDS =      -534.85524749
  atomic energy  EATOM  =       865.90604224
  Solvation  Ediel_sol  =         0.00000000
  ---------------------------------------------------
  free energy    TOTEN  =       145.90196276 eV

  energy without entropy =      145.89036695  energy(sigma->0) =      145.89809749


--------------------------------------------------------------------------------------------------------




----------------------------------------- Iteration    1(  34)  ---------------------------------------


    POTLOK:  cpu time   15.4207: real time   15.4641
    SETDIJ:  cpu time    0.0080: real time    0.0081
    EDDIAG:  cpu time    1.8067: real time    1.8124
  RMM-DIIS:  cpu time   10.0555: real time   10.0943
    ORTHCH:  cpu time    0.0770: real time    0.0775
       DOS:  cpu time    0.0010: real time    0.0003
    CHARGE:  cpu time    2.4766: real time    2.4857
    MIXING:  cpu time    2.2997: real time    2.3102
    --------------------------------------------
      LOOP:  cpu time   32.1471: real time   32.2581

 eigenvalue-minimisations  :    29
[...]
 augmentation part        3.5639326 magnetization 

 Broyden mixing:
  rms(total) = 0.60838E+01    rms(broyden)= 0.60597E+01
  rms(prec ) = 0.62209E+01
  weight for this iteration     100.00

 eigenvalues of (default mixing * dielectric matrix)
  average eigenvalue GAMMA=   0.3121
  2.6287  2.6287  1.0653  1.0653  0.7110  0.4580  0.4580  0.4615  0.4615  0.4116
  0.2334  0.2334  0.2230  0.2230  0.2023  0.2023  0.1988  0.1988  0.1272  0.1272
  0.1075  0.1075  0.0958  0.0958  0.0852  0.0852  0.0570  0.0570  0.0579  0.0509
  0.0509  0.0427  0.0402  0.0402  0.0293  0.0267  0.0160  0.0134  0.0134  0.0112
  0.0112  0.0023  0.0023

 Free energy of the ion-electron system (eV)
  ---------------------------------------------------
  alpha Z        PSCENC =         0.01427242
  Ewald energy   TEWEN  =       638.28846798
  -Hartree energ DENC   =      -580.30926918
  -exchange      EXHF   =         0.00000000
  -V(xc)+E(xc)   XCENC  =        40.95765726
  PAW double counting   =       324.85650020     -226.09410993
  entropy T*S    EENTRO =         0.01159581
  eigenvalues    EBANDS =      -747.00659553
  atomic energy  EATOM  =       865.90604224
  Solvation  Ediel_sol  =         0.00000000
  ---------------------------------------------------
  free energy    TOTEN  =       316.62456128 eV

  energy without entropy =      316.61296547  energy(sigma->0) =      316.62069601


--------------------------------------------------------------------------------------------------------




----------------------------------------- Iteration   11(  55)  ---------------------------------------


    POTLOK:  cpu time   14.8647: real time   14.9203
    SETDIJ:  cpu time    0.0150: real time    0.0149
    EDDIAG:  cpu time    1.8017: real time    1.8098
  RMM-DIIS:  cpu time    8.9416: real time    8.9762
    ORTHCH:  cpu time    0.0780: real time    0.0783
       DOS:  cpu time    0.0010: real time    0.0004
    CHARGE:  cpu time    2.0887: real time    2.0955
    MIXING:  cpu time    7.0229: real time    7.0526
    --------------------------------------------
      LOOP:  cpu time   34.8157: real time   34.9532

 eigenvalue-minimisations  :    26
 total energy-change (2. order) :-0.1829855E+03  (-0.5516821E+02)
 number of electron      12.0000583 magnetization 
 augmentation part        3.8308733 magnetization 

 Broyden mixing:
  rms(total) = 0.62750E+01    rms(broyden)= 0.62687E+01
  rms(prec ) = 0.64404E+01
  weight for this iteration     100.00

 eigenvalues of (default mixing * dielectric matrix)
  average eigenvalue GAMMA=   0.3095
  2.6601  2.6601  1.0531  1.0531  0.7127  0.5107  0.5107  0.4733  0.4733  0.4155
  0.2146  0.2146  0.2143  0.2143  0.2042  0.2042  0.1948  0.1948  0.1303  0.1044
  0.1203  0.1203  0.1152  0.0944  0.0944  0.0893  0.0893  0.0565  0.0565  0.0510
  0.0510  0.0423  0.0410  0.0410  0.0285  0.0257  0.0205  0.0161  0.0141  0.0141
  0.0106  0.0106  0.0011  0.0011

 Free energy of the ion-electron system (eV)
  ---------------------------------------------------
  alpha Z        PSCENC =         0.01427242
  Ewald energy   TEWEN  =       638.28846798
  -Hartree energ DENC   =      -581.27116996
  -exchange      EXHF   =         0.00000000
  -V(xc)+E(xc)   XCENC  =        40.55169833
  PAW double counting   =       322.06789443     -248.84764910
  entropy T*S    EENTRO =         0.01159581
  eigenvalues    EBANDS =      -903.08209867
  atomic energy  EATOM  =       865.90604224
  Solvation  Ediel_sol  =         0.00000000
  ---------------------------------------------------
  free energy    TOTEN  =       133.63905348 eV

  energy without entropy =      133.62745767  energy(sigma->0) =      133.63518821


--------------------------------------------------------------------------------------------------------




----------------------------------------- Iteration   11(  56)  ---------------------------------------


    POTLOK:  cpu time   14.8727: real time   14.9232
    SETDIJ:  cpu time    0.0090: real time    0.0088
    EDDIAG:  cpu time    1.7987: real time    1.8071
  RMM-DIIS:  cpu time    8.6177: real time    8.6549
    ORTHCH:  cpu time    0.0780: real time    0.0781
       DOS:  cpu time    0.0000: real time    0.0004
    CHARGE:  cpu time    2.1977: real time    2.2045
    MIXING:  cpu time    6.5970: real time    6.6290
    --------------------------------------------
      LOOP:  cpu time   34.1758: real time   34.3109

 eigenvalue-minimisations  :    25
 total energy-change (2. order) : 0.3053766E+03  ( 0.2477812E+02)
 number of electron      12.0000450 magnetization 
 augmentation part        2.9596211 magnetization 

 Broyden mixing:
  rms(total) = 0.58695E+01    rms(broyden)= 0.58662E+01
  rms(prec ) = 0.60140E+01
  weight for this iteration     100.00

 eigenvalues of (default mixing * dielectric matrix)
  average eigenvalue GAMMA=   0.2954
  2.5655  2.5655  0.9739  0.8162  0.8162  0.5341  0.4579  0.4579  0.3725  0.2365
  0.2365  0.1683  0.1683  0.1507  0.1507  0.0829  0.0829  0.0816  0.0816  0.0859
  0.0859  0.0584  0.0584  0.0675  0.0675  0.0500  0.0380  0.0380  0.0461  0.0461
  0.0294  0.0335  0.0297  0.0180  0.0180  0.0123  0.0053  0.0053  0.0055  0.0161

 Free energy of the ion-electron system (eV)
  ---------------------------------------------------
  alpha Z        PSCENC =         0.01427242
  Ewald energy   TEWEN  =       638.28846798
  -Hartree energ DENC   =      -582.03605196
  -exchange      EXHF   =         0.00000000
  -V(xc)+E(xc)   XCENC  =        40.66833951
  PAW double counting   =       324.11828090      -85.64163788
  entropy T*S    EENTRO =         0.01159581
  eigenvalues    EBANDS =      -762.31370346
  atomic energy  EATOM  =       865.90604224
  Solvation  Ediel_sol  =         0.00000000
  ---------------------------------------------------
  free energy    TOTEN  =       439.01560557 eV

  energy without entropy =      439.00400976  energy(sigma->0) =      439.01174030


--------------------------------------------------------------------------------------------------------




----------------------------------------- Iteration   11(  57)  ---------------------------------------


    POTLOK:  cpu time   14.8547: real time   14.9167
    SETDIJ:  cpu time    0.0120: real time    0.0121
    EDDIAG:  cpu time    1.7987: real time    1.8073
  RMM-DIIS:  cpu time   10.3594: real time   10.4037
    ORTHCH:  cpu time    0.0780: real time    0.0784
       DOS:  cpu time    0.0010: real time    0.0007
    CHARGE:  cpu time    2.0867: real time    2.0951
    MIXING:  cpu time    6.1931: real time    6.2215
    --------------------------------------------
      LOOP:  cpu time   35.3876: real time   35.5410

 eigenvalue-minimisations  :    30
 total energy-change (2. order) :-0.4857641E+03  (-0.6404309E+02)
 number of electron      12.0000609 magnetization 
 augmentation part        4.0029726 magnetization 

 Broyden mixing:
  rms(total) = 0.67619E+01    rms(broyden)= 0.67582E+01
  rms(prec ) = 0.69444E+01
  weight for this iteration     100.00

 eigenvalues of (default mixing * dielectric matrix)
  average eigenvalue GAMMA=   0.3146
  2.6163  2.6163  1.0218  1.0218  0.7998  0.7998  0.4984  0.4683  0.4683  0.3797
  0.2114  0.2114  0.1750  0.1750  0.1445  0.1445  0.0819  0.0819  0.0772  0.0772
  0.0836  0.0836  0.0641  0.0641  0.0690  0.0690  0.0502  0.0378  0.0378  0.0460
  0.0460  0.0292  0.0373  0.0184  0.0184  0.0282  0.0123  0.0049  0.0049  0.0053
  0.0169

 Free energy of the ion-electron system (eV)
  ---------------------------------------------------
  alpha Z        PSCENC =         0.01427242
  Ewald energy   TEWEN  =       638.28846798
  -Hartree energ DENC   =      -566.89257044
  -exchange      EXHF   =         0.00000000
  -V(xc)+E(xc)   XCENC  =        37.94365177
  PAW double counting   =       268.16867124     -258.74276566
  entropy T*S    EENTRO =         0.01159581
  eigenvalues    EBANDS =     -1031.44585150
  atomic energy  EATOM  =       865.90604224
  Solvation  Ediel_sol  =         0.00000000
  ---------------------------------------------------
  free energy    TOTEN  =       -46.74848614 eV

  energy without entropy =      -46.76008195  energy(sigma->0) =      -46.75235141


--------------------------------------------------------------------------------------------------------




----------------------------------------- Iteration   11(  58)  ---------------------------------------


    POTLOK:  cpu time   14.8817: real time   14.9322
    SETDIJ:  cpu time    0.0150: real time    0.0144
    EDDIAG:  cpu time    1.7977: real time    1.8041
  RMM-DIIS:  cpu time   10.3764: real time   10.4243
    ORTHCH:  cpu time    0.0780: real time    0.0780
       DOS:  cpu time    0.0000: real time    0.0004
    CHARGE:  cpu time    2.2057: real time    2.2108
    MIXING:  cpu time    6.4610: real time    6.4876
    --------------------------------------------
      LOOP:  cpu time   35.8186: real time   35.9565

 eigenvalue-minimisations  :    30
 total energy-change (2. order) : 0.3134680E+03  (-0.1696193E+03)
 number of electron      12.0000555 magnetization 
 augmentation part        3.6498502 magnetization 

 Broyden mixing:
  rms(total) = 0.64822E+01    rms(broyden)= 0.64745E+01
  rms(prec ) = 0.66318E+01
  weight for this iteration     100.00

 eigenvalues of (default mixing * dielectric matrix)
  average eigenvalue GAMMA=   0.3295
  2.5427  2.5427  1.6771  0.9859  0.8398  0.8398  0.4713  0.4713  0.4202  0.4202
  0.3921  0.2392  0.2392  0.1591  0.1591  0.1432  0.1432  0.0814  0.0814  0.1005
  0.0774  0.0774  0.0667  0.0667  0.0691  0.0691  0.0461  0.0700  0.0397  0.0397
  0.0284  0.0468  0.0468  0.0185  0.0185  0.0363  0.0282  0.0125  0.0050  0.0050
  0.0053  0.0167

 Free energy of the ion-electron system (eV)
  ---------------------------------------------------
  alpha Z        PSCENC =         0.01427242
  Ewald energy   TEWEN  =       638.28846798
  -Hartree energ DENC   =      -589.68107066
  -exchange      EXHF   =         0.00000000
  -V(xc)+E(xc)   XCENC  =        39.34715784
  PAW double counting   =       328.95463994     -285.36641673
  entropy T*S    EENTRO =         0.01159581
  eigenvalues    EBANDS =      -730.75520473
  atomic energy  EATOM  =       865.90604224
  Solvation  Ediel_sol  =         0.00000000
  ---------------------------------------------------
  free energy    TOTEN  =       266.71948410 eV

  energy without entropy =      266.70788829  energy(sigma->0) =      266.71561883


--------------------------------------------------------------------------------------------------------




----------------------------------------- Iteration   11(  59)  ---------------------------------------


    POTLOK:  cpu time   14.8717: real time   14.9347
    SETDIJ:  cpu time    0.0110: real time    0.0109
    EDDIAG:  cpu time    1.7987: real time    1.8076
  RMM-DIIS:  cpu time    8.6147: real time    8.6516
    ORTHCH:  cpu time    0.0780: real time    0.0778
       DOS:  cpu time    0.0010: real time    0.0005
    CHARGE:  cpu time    2.2857: real time    2.2927
    MIXING:  cpu time    6.7240: real time    6.7536
    --------------------------------------------
      LOOP:  cpu time   34.3888: real time   34.5346

 eigenvalue-minimisations  :    25
 total energy-change (2. order) : 0.1199092E+03  (-0.1492502E+03)
 number of electron      12.0000514 magnetization 
 augmentation part        3.3795331 magnetization 

 Broyden mixing:
  rms(total) = 0.66451E+01    rms(broyden)= 0.66395E+01
  rms(prec ) = 0.67923E+01
  weight for this iteration     100.00

 eigenvalues of (default mixing * dielectric matrix)
  average eigenvalue GAMMA=   0.3358
  2.5958  2.5958  1.3677  1.0022  0.9029  0.9029  0.5909  0.4813  0.4813  0.4636
  0.4636  0.3705  0.2287  0.2287  0.1623  0.1623  0.1432  0.1432  0.0813  0.0813
  0.0993  0.0774  0.0774  0.0680  0.0680  0.0688  0.0688  0.0457  0.0398  0.0398
  0.0663  0.0283  0.0473  0.0473  0.0184  0.0184  0.0125  0.0050  0.0050  0.0053
  0.0374  0.0283  0.0167

 Free energy of the ion-electron system (eV)
  ---------------------------------------------------
  alpha Z        PSCENC =         0.01427242
  Ewald energy   TEWEN  =       638.28846798
  -Hartree energ DENC   =      -600.50079667
  -exchange      EXHF   =         0.00000000
  -V(xc)+E(xc)   XCENC  =        39.63209495
  PAW double counting   =       276.50755310        2.60594762
  entropy T*S    EENTRO =         0.01159581
  eigenvalues    EBANDS =      -835.83647616
  atomic energy  EATOM  =       865.90604224
  Solvation  Ediel_sol  =         0.00000000
  ---------------------------------------------------
  free energy    TOTEN  =       386.62870129 eV

  energy without entropy =      386.61710548  energy(sigma->0) =      386.62483602


--------------------------------------------------------------------------------------------------------




----------------------------------------- Iteration   11(  60)  ---------------------------------------


    POTLOK:  cpu time   14.8897: real time   14.9353
    SETDIJ:  cpu time    0.0090: real time    0.0090
    EDDIAG:  cpu time    1.8047: real time    1.8083
  RMM-DIIS:  cpu time    9.9465: real time    9.9840
    ORTHCH:  cpu time    0.0740: real time    0.0775
       DOS:  cpu time    0.0000: real time    0.0002
    --------------------------------------------
      LOOP:  cpu time   26.7279: real time   26.8187

 eigenvalue-minimisations  :    29
 total energy-change (2. order) :-0.4519664E+03  (-0.6169488E+02)
 number of electron      12.0000514 magnetization 
 augmentation part        3.3795331 magnetization 

 Free energy of the ion-electron system (eV)
  ---------------------------------------------------
  alpha Z        PSCENC =         0.01427242
  Ewald energy   TEWEN  =       638.28846798
  -Hartree energ DENC   =      -603.23176910
  -exchange      EXHF   =         0.00000000
  -V(xc)+E(xc)   XCENC  =        39.38270145
  PAW double counting   =       269.05780809     -259.68931747
  entropy T*S    EENTRO =         0.01159581
  eigenvalues    EBANDS =     -1015.07745993
  atomic energy  EATOM  =       865.90604224
  Solvation  Ediel_sol  =         0.00000000
  ---------------------------------------------------
  free energy    TOTEN  =       -65.33765852 eV

  energy without entropy =      -65.34925434  energy(sigma->0) =      -65.34152379


--------------------------------------------------------------------------------------------------------




 average (electrostatic) potential at core
  the test charge radii are     0.8742
  (the norm of the test charge is              1.0000)
       1-145.3739       2-170.2489
 
 
 
 E-fermi : -55.3250     XC(G=0):  -0.1297     alpha+bet : -0.0030


 k-point     1 :       0.0000    0.0000    0.0000
  band No.  band energies     occupation 
      1    -124.2656      2.00000
      2     -92.1457      2.00000
      3     -93.3462      2.00000
      4     -77.8637      2.00000
      5     -64.4242      2.00000
      6     -55.4934      2.00000
      7     -22.0636      0.00000
      8     -22.6049      0.00000
      9     -25.4387      0.00000
     10     -43.6570      0.00000


--------------------------------------------------------------------------------------------------------


 soft charge-density along one line, spin component           1
         0         1         2         3         4         5         6         7         8         9
 total charge-density along one line
 
 pseudopotential strength for first ion, spin component:           1
 48.536   0.313   0.100  -4.604  -0.207   0.013  -0.742  -0.036
  0.313   0.075   0.003  -0.098  -0.002   0.001  -0.018  -0.001
  0.100   0.003 -27.807  -0.182  -0.358  -3.402  -0.044  -0.047
 -4.604  -0.098  -0.182 -32.061  -0.090  -0.044  -3.953  -0.010
 -0.207  -0.002  -0.358  -0.090 -28.277  -0.047  -0.010  -3.489
  0.013   0.001  -3.402  -0.044  -0.047  -0.314  -0.007  -0.006
 -0.742  -0.018  -0.044  -3.953  -0.010  -0.007  -0.377  -0.001
 -0.036  -0.001  -0.047  -0.010  -3.489  -0.006  -0.001  -0.327
 total augmentation occupancy for first ion, spin component:           1
  0.280   1.742  -0.024   0.330   0.089   0.302  -1.695  -0.571
  1.742  35.792   0.200   5.178   0.515  -0.647 -27.515  -3.634
 -0.024   0.200   0.454  -0.049  -0.067  -2.527   0.525   0.426
  0.330   5.178  -0.049   0.850   0.120   0.406  -4.690  -0.817
  0.089   0.515  -0.067   0.120   0.238   0.395  -0.724  -1.368
  0.302  -0.647  -2.527   0.406   0.395  14.174  -3.603  -2.551
 -1.695 -27.515   0.525  -4.690  -0.724  -3.603  26.447   4.910
 -0.571  -3.634   0.426  -0.817  -1.368  -2.551   4.910   7.909


------------------------ aborting loop because EDIFF is reached ----------------------------------------


    CHARGE:  cpu time    2.0867: real time    2.0949
    FORLOC:  cpu time    0.2290: real time    0.2290
    FORNL :  cpu time    2.6866: real time    2.6984
    FORHAR:  cpu time    3.7974: real time    3.8073
    MIXING:  cpu time    7.0109: real time    7.0409
    OFIELD:  cpu time    0.0000: real time    0.0001

 VOLUME and BASIS-vectors are now :
 -----------------------------------------------------------------------------
  energy-cutoff  :      274.00
  volume of cell :    46656.00
      direct lattice vectors                 reciprocal lattice vectors
    36.000000000  0.000000000  0.000000000     0.027777778  0.000000000  0.000000000
     0.000000000 36.000000000  0.000000000     0.000000000  0.027777778  0.000000000
     0.000000000  0.000000000 36.000000000     0.000000000  0.000000000  0.027777778

  length of vectors
    36.000000000 36.000000000 36.000000000     0.027777778  0.027777778  0.027777778


 FORCES acting on ions
    electron-ion (+dipol)            ewald-force                    non-local-force                 convergence-correction
 -----------------------------------------------------------------------------------------------
   0.110E+02 0.180E+02 0.756E+03   -.685E-18 -.711E-09 -.100E+04   0.206E+01 -.367E+01 0.231E+03   0.798E+01 -.432E+02 -.306E+03
   0.216E+01 0.188E+01 -.462E+03   -.331E-17 0.711E-09 0.100E+04   -.438E+01 0.113E+01 -.526E+03   -.763E+01 -.756E+01 0.219E+03
 -----------------------------------------------------------------------------------------------
   0.131E+02 0.199E+02 0.294E+03   -.400E-17 -.259E-17 0.000E+00   -.233E+01 -.254E+01 -.295E+03   0.354E+00 -.507E+02 -.873E+02
 
 
 POSITION                                       TOTAL-FORCE (eV/Angst)
 -----------------------------------------------------------------------------------
      3.60000      3.60000      3.60000        15.431037    -12.140516   -275.201610
      3.60000      3.60000      4.32000       -15.431037     12.140516    275.201610
 -----------------------------------------------------------------------------------
    total drift:                               11.165605    -33.365586    -88.692852


--------------------------------------------------------------------------------------------------------



  FREE ENERGIE OF THE ION-ELECTRON SYSTEM (eV)
  ---------------------------------------------------
  free  energy   TOTEN  =       -65.33765852 eV

  energy  without entropy=      -65.34925434  energy(sigma->0) =      -65.34152379
 
 d Force =-0.8150432E+03[-0.163E+04, 0.451E+00]  d Energy = 0.4293576E+03-0.124E+04
 d Force =-0.2995224E+04[-0.592E+04,-0.676E+02]  d Ewald  =-0.6408904E+03-0.235E+04


--------------------------------------------------------------------------------------------------------


    POTLOK:  cpu time   14.8967: real time   14.9514


--------------------------------------------------------------------------------------------------------


 stress matrix after NEB project (eV)
      0.00000      0.00000      0.00000
      0.00000      0.00000      0.00000
      0.00000      0.00000      0.00000
  FORCES: max atom, RMS   275.901133  275.901133
  FORCE total and by dimension  390.183125  275.201610
  Stress total and by dimension    0.000000    0.000000
