Pt cube particle                        
           1
    36.000000    0.000000    0.000000
     0.000000   36.000000    0.000000
     0.000000    0.000000   36.000000
   O 
   2
Direct configuration=     1
   0.10000000  0.10000000  0.10000000
   0.10000000  0.10000000  0.12000000
Direct configuration=     2
   0.10059055  0.10024453  0.02245944
   0.09940945  0.09975547  0.19754056
Direct configuration=     3
   0.10062783  0.10025996  0.01756494
   0.09937217  0.09974004  0.20243506
Direct configuration=     4
   0.10062677  0.10025953  0.01770334
   0.09937323  0.09974047  0.20229666
Direct configuration=     5
   0.10062654  0.10025943  0.01773364
   0.09937346  0.09974057  0.20226636
Direct configuration=     6
   0.10062657  0.10025944  0.01773021
   0.09937343  0.09974056  0.20226979
Direct configuration=     7
   0.10062655  0.10025943  0.01773329
   0.09937345  0.09974057  0.20226671
Direct configuration=     8
   0.10062654  0.10025943  0.01773359
   0.09937346  0.09974057  0.20226641
Direct configuration=     9
   0.10062654  0.10025943  0.01773363
   0.09937346  0.09974057  0.20226637
Direct configuration=    10
   0.10062654  0.10025943  0.01773364
   0.09937346  0.09974057  0.20226636
