 running on    8 total cores
 distrk:  each k-point on    8 cores,    1 groups
 distr:  one band on    4 cores,    2 groups
 using from now: INCAR     
 vasp.5.4.1 24Jun15 (build Jan 06 2016 13:10:00) complex                        
  
 POSCAR found type information on POSCAR  Sr Fe O 
 POSCAR found :  3 types and      21 ions
 scaLAPACK will be used

 ----------------------------------------------------------------------------- 
|                                                                             |
|           W    W    AA    RRRRR   N    N  II  N    N   GGGG   !!!           |
|           W    W   A  A   R    R  NN   N  II  NN   N  G    G  !!!           |
|           W    W  A    A  R    R  N N  N  II  N N  N  G       !!!           |
|           W WW W  AAAAAA  RRRRR   N  N N  II  N  N N  G  GGG   !            |
|           WW  WW  A    A  R   R   N   NN  II  N   NN  G    G                |
|           W    W  A    A  R    R  N    N  II  N    N   GGGG   !!!           |
|                                                                             |
|      For LVTOT=.TRUE. VASP.5.x writes the TOTAL local potential to          |
|      the file LOCPOT. If you want the Hartree contributions only, use       |
|      LVHAR=.TRUE. instead.                                                  |
|                                                                             |
 ----------------------------------------------------------------------------- 

 LDA part: xc-table for Ceperly-Alder, standard interpolation
 POSCAR found type information on POSCAR  Sr Fe O 
 POSCAR found :  3 types and      21 ions
 POSCAR, INCAR and KPOINTS ok, starting setup
 WARNING: small aliasing (wrap around) errors must be expected
 FFT: planning ...
 WAVECAR not read
 WARNING: chargedensity file is incomplete
 entering main loop
       N       E                     dE             d eps       ncg     rms          rms(c)
DAV:   1     0.147098949505E+04    0.14710E+04   -0.72567E+04  1552   0.104E+03
DAV:   2    -0.308821506032E+02   -0.15019E+04   -0.14313E+04  1460   0.374E+02
DAV:   3    -0.151792909489E+03   -0.12091E+03   -0.11900E+03  1664   0.116E+02
DAV:   4    -0.157213612230E+03   -0.54207E+01   -0.53933E+01  2192   0.240E+01
DAV:   5    -0.157631037951E+03   -0.41743E+00   -0.41719E+00  2384   0.404E+00    0.597E+01
RMM:   6    -0.806555908592E+03   -0.64892E+03   -0.99875E+02  1692   0.114E+02    0.116E+02
RMM:   7    -0.724076428920E+03    0.82479E+02   -0.69125E+02  1677   0.564E+01    0.981E+01
RMM:   8    -0.254712459725E+03    0.46936E+03   -0.93912E+01  1416   0.314E+01    0.943E+01
RMM:   9    -0.142809152466E+03    0.11190E+03   -0.29686E+01  1396   0.204E+01    0.529E+01
RMM:  10    -0.128838064293E+03    0.13971E+02   -0.23496E+00  1452   0.562E+00    0.469E+01
RMM:  11    -0.121433534019E+03    0.74045E+01   -0.15315E+00  1419   0.360E+00    0.419E+01
RMM:  12    -0.118837341881E+03    0.25962E+01   -0.24102E+00  1406   0.586E+00    0.311E+01
RMM:  13    -0.121006940892E+03   -0.21696E+01   -0.64067E-01  1418   0.266E+00    0.293E+01
RMM:  14    -0.124564672151E+03   -0.35577E+01   -0.36523E-01  1422   0.180E+00    0.302E+01
RMM:  15    -0.128129108256E+03   -0.35644E+01   -0.12823E+00  1395   0.355E+00    0.350E+01
RMM:  16    -0.126773534872E+03    0.13556E+01   -0.71444E-01  1412   0.252E+00    0.284E+01
RMM:  17    -0.132249759876E+03   -0.54762E+01   -0.13898E+00  1409   0.356E+00    0.329E+01
RMM:  18    -0.129120828299E+03    0.31289E+01   -0.42595E+00  1406   0.626E+00    0.303E+01
RMM:  19    -0.126323252681E+03    0.27976E+01   -0.13700E+00  1454   0.374E+00    0.224E+01
RMM:  20    -0.127555036903E+03   -0.12318E+01   -0.44320E-01  1530   0.187E+00    0.228E+01
RMM:  21    -0.128120567249E+03   -0.56553E+00   -0.33962E-01  1475   0.177E+00    0.230E+01
RMM:  22    -0.127090439394E+03    0.10301E+01   -0.13220E-01  1571   0.102E+00    0.215E+01
RMM:  23    -0.125155100363E+03    0.19353E+01   -0.69706E-01  1420   0.238E+00    0.168E+01
RMM:  24    -0.125398282565E+03   -0.24318E+00   -0.25726E-01  1440   0.150E+00    0.168E+01
RMM:  25    -0.125211892292E+03    0.18639E+00   -0.76196E-02  1481   0.851E-01    0.140E+01
RMM:  26    -0.125124142285E+03    0.87750E-01   -0.75798E-02  1427   0.643E-01    0.157E+01
RMM:  27    -0.125289022557E+03   -0.16488E+00   -0.42460E-02  1424   0.511E-01    0.212E+01
RMM:  28    -0.125324188823E+03   -0.35166E-01   -0.36995E-02  1379   0.440E-01    0.195E+01
RMM:  29    -0.125245067248E+03    0.79122E-01   -0.21273E-02  1333   0.287E-01    0.201E+01
RMM:  30    -0.125271544448E+03   -0.26477E-01   -0.13771E-01  1368   0.742E-01    0.206E+01
RMM:  31    -0.124384221222E+03    0.88732E+00   -0.27997E-01  1400   0.103E+00    0.173E+01
RMM:  32    -0.123497659144E+03    0.88656E+00   -0.37474E-01  1390   0.120E+00    0.170E+01
RMM:  33    -0.123343567318E+03    0.15409E+00   -0.14148E-01  1414   0.807E-01    0.175E+01
RMM:  34    -0.123381360710E+03   -0.37793E-01   -0.11062E-02  1445   0.253E-01    0.176E+01
RMM:  35    -0.123719719803E+03   -0.33836E+00   -0.17040E-02  1344   0.241E-01    0.178E+01
RMM:  36    -0.123619708020E+03    0.10001E+00   -0.94773E-04  1133   0.825E-02    0.177E+01
RMM:  37    -0.123632631654E+03   -0.12924E-01   -0.14581E-04   871   0.308E-02    0.177E+01
RMM:  38    -0.124822093708E+03   -0.11895E+01   -0.10995E-01  1372   0.590E-01    0.186E+01
RMM:  39    -0.124704813652E+03    0.11728E+00   -0.25427E-03  1229   0.162E-01    0.185E+01
RMM:  40    -0.125182273981E+03   -0.47746E+00   -0.90720E-03  1278   0.198E-01    0.188E+01
RMM:  41    -0.124933998112E+03    0.24828E+00   -0.44588E-01  1387   0.152E+00    0.198E+01
RMM:  42    -0.125750497705E+03   -0.81650E+00   -0.79557E-01  1400   0.208E+00    0.214E+01
RMM:  43    -0.125487169674E+03    0.26333E+00   -0.81464E-02  1440   0.100E+00    0.235E+01
RMM:  44    -0.124959306173E+03    0.52786E+00   -0.36230E-02  1465   0.505E-01    0.190E+01
RMM:  45    -0.124063825489E+03    0.89548E+00   -0.65806E-02  1403   0.782E-01    0.130E+01
RMM:  46    -0.124595508831E+03   -0.53168E+00   -0.24015E-01  1391   0.109E+00    0.175E+01
RMM:  47    -0.123644458476E+03    0.95105E+00   -0.65495E-01  1390   0.169E+00    0.131E+01
RMM:  48    -0.120351989203E+03    0.32925E+01   -0.70028E+00  1392   0.206E+00    0.142E+01
RMM:  49    -0.114371196419E+03    0.59808E+01   -0.11408E+01  1398   0.203E+00    0.140E+01
RMM:  50    -0.107838589393E+03    0.65326E+01   -0.48053E+00  1371   0.170E+00    0.139E+01
RMM:  51    -0.107566952939E+03    0.27164E+00   -0.33389E-01  1399   0.162E+00    0.138E+01
RMM:  52    -0.773637841541E+02    0.30203E+02   -0.35254E+00  1405   0.187E+00    0.161E+01
RMM:  53    -0.806947872172E+02   -0.33310E+01   -0.10622E+00  1437   0.127E+00    0.141E+01
RMM:  54    -0.956059332809E+02   -0.14911E+02   -0.58938E+00  1413   0.220E+00    0.103E+01
RMM:  55    -0.899598265032E+02    0.56461E+01   -0.47174E-01  1408   0.996E-01    0.125E+01
RMM:  56    -0.123492891557E+03   -0.33533E+02   -0.86003E+01  1430   0.618E+00    0.793E+00
RMM:  57    -0.123608797688E+03   -0.11591E+00   -0.20529E+00  1481   0.138E+00    0.599E+00
RMM:  58    -0.123705482446E+03   -0.96685E-01   -0.17678E-01  1449   0.976E-01    0.565E+00
RMM:  59    -0.124348914034E+03   -0.64343E+00   -0.17479E+00  1431   0.859E-01    0.906E+00
RMM:  60    -0.124405321488E+03   -0.56407E-01   -0.64227E-01  1422   0.743E-01    0.905E+00
RMM:  61    -0.124073081239E+03    0.33224E+00   -0.80757E-01  1392   0.161E+00    0.116E+01
RMM:  62    -0.124302726341E+03   -0.22965E+00   -0.38564E-02  1430   0.579E-01    0.117E+01
RMM:  63    -0.124418484117E+03   -0.11576E+00   -0.16769E-02  1392   0.300E-01    0.118E+01
RMM:  64    -0.124441715278E+03   -0.23231E-01   -0.24072E-03  1289   0.133E-01    0.118E+01
RMM:  65    -0.124642132658E+03   -0.20042E+00   -0.49835E-02  1346   0.448E-01    0.121E+01
RMM:  66    -0.123979576724E+03    0.66256E+00   -0.11446E-01  1370   0.662E-01    0.862E+00
RMM:  67    -0.123938013711E+03    0.41563E-01   -0.23187E-02  1345   0.409E-01    0.822E+00
RMM:  68    -0.123930522484E+03    0.74912E-02   -0.23834E-02  1307   0.399E-01    0.105E+01
RMM:  69    -0.123894765772E+03    0.35757E-01   -0.45088E-03  1198   0.191E-01    0.105E+01
RMM:  70    -0.123985751214E+03   -0.90985E-01   -0.36099E-03  1168   0.144E-01    0.115E+01
RMM:  71    -0.123712257731E+03    0.27349E+00   -0.39817E-01  1395   0.119E+00    0.988E+00
RMM:  72    -0.123482467320E+03    0.22979E+00   -0.99210E-02  1407   0.749E-01    0.610E+00
RMM:  73    -0.123530981095E+03   -0.48514E-01   -0.23971E-02  1375   0.413E-01    0.626E+00
RMM:  74    -0.123584020636E+03   -0.53040E-01   -0.15632E-02  1382   0.307E-01    0.773E+00
RMM:  75    -0.123544471781E+03    0.39549E-01   -0.54564E-03  1232   0.167E-01    0.687E+00
RMM:  76    -0.123830030488E+03   -0.28556E+00   -0.39902E-02  1359   0.513E-01    0.156E+01
RMM:  77    -0.123592159118E+03    0.23787E+00   -0.72827E-02  1377   0.704E-01    0.109E+01
RMM:  78    -0.123638432677E+03   -0.46274E-01   -0.38358E-02  1365   0.612E-01    0.136E+01
RMM:  79    -0.123438286544E+03    0.20015E+00   -0.46731E-02  1354   0.591E-01    0.121E+01
RMM:  80    -0.123443426406E+03   -0.51399E-02   -0.62216E-03  1282   0.254E-01    0.116E+01
RMM:  81    -0.123545840182E+03   -0.10241E+00   -0.29254E-01  1378   0.973E-01    0.113E+01
RMM:  82    -0.123865819223E+03   -0.31998E+00   -0.92264E-02  1350   0.569E-01    0.111E+01
RMM:  83    -0.124169509416E+03   -0.30369E+00   -0.24663E-02  1313   0.321E-01    0.172E+01
RMM:  84    -0.124345850285E+03   -0.17634E+00   -0.15471E-01  1187   0.449E-01    0.183E+01
RMM:  85    -0.124266521047E+03    0.79329E-01   -0.12884E-02   978   0.173E-01    0.183E+01
RMM:  86    -0.111239624338E+03    0.13027E+02   -0.27800E+01  1395   0.386E+00    0.132E+01
RMM:  87    -0.110819047910E+03    0.42058E+00   -0.48625E-01  1387   0.937E-01    0.109E+01
RMM:  88    -0.111476538044E+03   -0.65749E+00   -0.83239E-02  1399   0.630E-01    0.120E+01
RMM:  89    -0.113293233920E+03   -0.18167E+01   -0.10825E-01  1355   0.678E-01    0.118E+01
RMM:  90    -0.113755125099E+03   -0.46189E+00   -0.27702E-02  1318   0.358E-01    0.117E+01
RMM:  91    -0.111069064292E+03    0.26861E+01   -0.45886E-01  1386   0.957E-01    0.839E+00
RMM:  92    -0.110179849839E+03    0.88921E+00   -0.62977E-02  1332   0.512E-01    0.899E+00
RMM:  93    -0.113027634187E+03   -0.28478E+01   -0.22637E-01  1371   0.870E-01    0.887E+00
RMM:  94    -0.117146150477E+03   -0.41185E+01   -0.12009E+00  1394   0.161E+00    0.143E+01
RMM:  95    -0.118317705645E+03   -0.11716E+01   -0.18194E-01  1386   0.746E-01    0.148E+01
RMM:  96    -0.119775552689E+03   -0.14578E+01   -0.66989E-01  1376   0.117E+00    0.157E+01
RMM:  97    -0.119758887561E+03    0.16665E-01   -0.89312E-03  1405   0.263E-01    0.156E+01
RMM:  98    -0.120001622186E+03   -0.24273E+00   -0.76753E-02  1358   0.461E-01    0.150E+01
RMM:  99    -0.120489412212E+03   -0.48779E+00   -0.96544E-02  1401   0.718E-01    0.139E+01
RMM: 100    -0.123451873086E+03   -0.29625E+01   -0.29027E+00  1413   0.170E+00
   1 F= -.12345187E+03 E0= -.12344475E+03  d E =-.123452E+03  mag=    18.4242
 curvature:   0.00 expect dE= 0.000E+00 dE for cont linesearch  0.000E+00
 trial: gam= 0.00000 g(F)=  0.554E+00 g(S)=  0.000E+00 ort = 0.000E+00 (trialstep = 0.100E+01)
 search vector abs. value=  0.554E+00
 bond charge predicted
       N       E                     dE             d eps       ncg     rms          rms(c)
DAV:   1    -0.119021284852E+03    0.14681E+01   -0.13887E+02  1712   0.336E+01    0.143E+01
RMM:   2    -0.148871348266E+03   -0.29850E+02   -0.38733E+01  1437   0.164E+01    0.520E+01
RMM:   3    -0.200005918527E+03   -0.51135E+02   -0.16689E+01  1443   0.995E+00    0.774E+01
RMM:   4    -0.134191613070E+03    0.65814E+02   -0.28904E+00  1407   0.618E+00    0.415E+01
RMM:   5    -0.127413793411E+03    0.67778E+01   -0.14215E+00  1430   0.407E+00    0.210E+01
RMM:   6    -0.126454656720E+03    0.95914E+00   -0.19662E+00  1407   0.304E+00    0.129E+01
RMM:   7    -0.126588684494E+03   -0.13403E+00   -0.87020E-01  1423   0.270E+00    0.179E+01
RMM:   8    -0.125660041666E+03    0.92864E+00   -0.26155E-01  1416   0.137E+00    0.135E+01
RMM:   9    -0.125068223288E+03    0.59182E+00   -0.46430E-01  1423   0.207E+00    0.102E+01
RMM:  10    -0.124709542322E+03    0.35868E+00   -0.66231E-02  1523   0.803E-01    0.944E+00
RMM:  11    -0.125088842427E+03   -0.37930E+00   -0.18356E-01  1435   0.109E+00    0.143E+01
RMM:  12    -0.125154622352E+03   -0.65780E-01   -0.22856E-02  1429   0.529E-01    0.143E+01
RMM:  13    -0.125106154250E+03    0.48468E-01   -0.33492E-03  1489   0.172E-01    0.144E+01
RMM:  14    -0.125255819139E+03   -0.14966E+00   -0.10323E+00  1401   0.238E+00    0.134E+01
RMM:  15    -0.121928813654E+03    0.33270E+01   -0.53608E+00  1441   0.240E+00    0.135E+01
RMM:  16    -0.119777819335E+03    0.21510E+01   -0.78873E-01  1490   0.965E-01    0.137E+01
RMM:  17    -0.114619363526E+03    0.51585E+01   -0.23149E+00  1416   0.135E+00    0.143E+01
RMM:  18    -0.111977566557E+03    0.26418E+01   -0.14063E+00  1459   0.804E-01    0.147E+01
RMM:  19    -0.109150510854E+03    0.28271E+01   -0.38861E-01  1414   0.556E-01    0.151E+01
RMM:  20    -0.113310319052E+03   -0.41598E+01   -0.51202E-01  1360   0.538E-01    0.145E+01
RMM:  21    -0.123942403471E+03   -0.10632E+02   -0.12285E+01  1405   0.247E+00    0.109E+01
RMM:  22    -0.126407792352E+03   -0.24654E+01   -0.46151E+00  1428   0.172E+00    0.120E+01
RMM:  23    -0.127266953033E+03   -0.85916E+00   -0.87874E-01  1402   0.179E+00    0.115E+01
RMM:  24    -0.127380090763E+03   -0.11314E+00   -0.28541E-01  1405   0.145E+00    0.114E+01
RMM:  25    -0.126601638291E+03    0.77845E+00   -0.21648E-01  1390   0.800E-01    0.685E+00
RMM:  26    -0.126563843402E+03    0.37795E-01   -0.94897E-02  1420   0.527E-01    0.613E+00
RMM:  27    -0.126518336450E+03    0.45507E-01   -0.27827E-02  1380   0.289E-01    0.582E+00
RMM:  28    -0.126610142459E+03   -0.91806E-01   -0.47204E-02  1371   0.462E-01    0.591E+00
RMM:  29    -0.126528229923E+03    0.81913E-01   -0.51435E-02  1400   0.502E-01    0.502E+00
RMM:  30    -0.126421300511E+03    0.10693E+00   -0.31595E-02  1386   0.493E-01    0.461E+00
RMM:  31    -0.126397506238E+03    0.23794E-01   -0.10901E-02  1388   0.271E-01    0.435E+00
RMM:  32    -0.126343891368E+03    0.53615E-01   -0.85627E-02  1398   0.662E-01    0.652E+00
RMM:  33    -0.126562207417E+03   -0.21832E+00   -0.34102E-02  1388   0.420E-01    0.945E+00
RMM:  34    -0.126542857799E+03    0.19350E-01   -0.72781E-03  1288   0.178E-01    0.943E+00
RMM:  35    -0.126534961209E+03    0.78966E-02   -0.14796E-03  1153   0.910E-02    0.922E+00
RMM:  36    -0.126396970458E+03    0.13799E+00   -0.51334E-02  1342   0.438E-01    0.623E+00
RMM:  37    -0.126377070088E+03    0.19900E-01   -0.30030E-02  1360   0.449E-01    0.530E+00
RMM:  38    -0.126376854517E+03    0.21557E-03   -0.28558E-02  1355   0.488E-01    0.424E+00
RMM:  39    -0.126391341034E+03   -0.14487E-01   -0.13935E-02  1334   0.257E-01    0.304E+00
RMM:  40    -0.126392761730E+03   -0.14207E-02   -0.14420E-02  1363   0.282E-01    0.297E+00
RMM:  41    -0.126402752968E+03   -0.99912E-02   -0.32028E-02  1335   0.360E-01    0.334E+00
RMM:  42    -0.126387827866E+03    0.14925E-01   -0.84851E-03  1373   0.268E-01    0.197E+00
RMM:  43    -0.126382825218E+03    0.50026E-02   -0.42671E-03  1305   0.209E-01    0.135E+00
RMM:  44    -0.126396278981E+03   -0.13454E-01   -0.71579E-03  1312   0.220E-01    0.223E+00
RMM:  45    -0.126416160380E+03   -0.19881E-01   -0.49485E-03  1267   0.168E-01    0.199E+00
RMM:  46    -0.126421145777E+03   -0.49854E-02   -0.21220E-02  1312   0.272E-01    0.173E+00
RMM:  47    -0.126456718678E+03   -0.35573E-01   -0.26585E-02  1372   0.409E-01    0.197E+00
RMM:  48    -0.126449435097E+03    0.72836E-02   -0.43301E-03  1276   0.182E-01    0.188E+00
RMM:  49    -0.126421897593E+03    0.27538E-01   -0.29484E-03  1246   0.123E-01    0.186E+00
RMM:  50    -0.126417475959E+03    0.44216E-02   -0.96397E-04  1079   0.905E-02    0.167E+00
RMM:  51    -0.126406990819E+03    0.10485E-01   -0.11951E-03  1062   0.803E-02    0.117E+00
RMM:  52    -0.126409311757E+03   -0.23209E-02   -0.22275E-03  1094   0.941E-02    0.164E+00
RMM:  53    -0.126403351638E+03    0.59601E-02   -0.19906E-03   958   0.983E-02    0.714E-01
RMM:  54    -0.126409230596E+03   -0.58790E-02   -0.43559E-04   898   0.538E-02    0.160E+00
RMM:  55    -0.126403394074E+03    0.58365E-02   -0.26986E-04   847   0.446E-02    0.687E-01
RMM:  56    -0.126407771382E+03   -0.43773E-02   -0.47842E-04   925   0.550E-02    0.362E-01
RMM:  57    -0.126409849768E+03   -0.20784E-02   -0.36376E-04   889   0.467E-02    0.208E-01
RMM:  58    -0.126411441353E+03   -0.15916E-02   -0.28610E-04   883   0.419E-02    0.352E-01
RMM:  59    -0.126412539112E+03   -0.10978E-02   -0.17965E-04   851   0.315E-02    0.162E-01
RMM:  60    -0.126412917951E+03   -0.37884E-03   -0.11916E-04   795   0.247E-02    0.238E-01
RMM:  61    -0.126412938480E+03   -0.20529E-04   -0.50563E-05   691   0.188E-02
   2 F= -.12641294E+03 E0= -.12640097E+03  d E =-.296107E+01  mag=    19.4279
 trial-energy change:   -2.961065  1 .order   -0.314489   -0.553911   -0.075066
 step:   1.0046(harm=  1.1568)  dis= 0.04809  next Energy=  -126.413110 (dE=-0.296E+01)
 bond charge predicted
       N       E                     dE             d eps       ncg     rms          rms(c)
DAV:   1    -0.126413418302E+03   -0.50035E-03   -0.15813E-03  1392   0.148E-01    0.318E-01
RMM:   2    -0.126894907008E+03   -0.48149E+00   -0.21021E-02  1317   0.243E-01    0.135E+01
RMM:   3    -0.126301093034E+03    0.59381E+00   -0.30716E-02  1352   0.406E-01    0.125E+00
RMM:   4    -0.126421605378E+03   -0.12051E+00   -0.98698E-03  1298   0.286E-01    0.295E+00
RMM:   5    -0.126405122289E+03    0.16483E-01   -0.21651E-03  1237   0.128E-01    0.952E-01
RMM:   6    -0.126422843577E+03   -0.17721E-01   -0.30219E-03  1191   0.150E-01    0.153E+00
RMM:   7    -0.126416686633E+03    0.61569E-02   -0.86927E-04  1024   0.836E-02    0.116E+00
RMM:   8    -0.126418204503E+03   -0.15179E-02   -0.17019E-04   867   0.398E-02    0.130E+00
RMM:   9    -0.126416120626E+03    0.20839E-02   -0.11843E-04   822   0.289E-02    0.115E+00
RMM:  10    -0.126413268165E+03    0.28525E-02   -0.91817E-05   813   0.264E-02    0.860E-01
RMM:  11    -0.126413279228E+03   -0.11063E-04   -0.84650E-05   684   0.223E-02
   3 F= -.12641328E+03 E0= -.12640358E+03  d E =-.296141E+01  mag=    19.4219
 curvature:  -0.03 expect dE=-0.296E-02 dE for cont linesearch -0.213E-03
 ZBRENT: increasing intervall
 opt :   1.0137  next Energy=  -126.413683 (dE=-0.296E+01)
 bond charge predicted
       N       E                     dE             d eps       ncg     rms          rms(c)
DAV:   1    -0.126415050237E+03   -0.17821E-02   -0.61109E-03  1708   0.291E-01    0.112E+00
RMM:   2    -0.130956094769E+03   -0.45410E+01   -0.28611E-01  1378   0.924E-01    0.195E+01
RMM:   3    -0.126330662754E+03    0.46254E+01   -0.25825E-01  1397   0.104E+00    0.565E+00
RMM:   4    -0.126409880017E+03   -0.79217E-01   -0.36730E-02  1360   0.552E-01    0.505E+00
RMM:   5    -0.126394871171E+03    0.15009E-01   -0.49431E-03  1343   0.203E-01    0.280E+00
RMM:   6    -0.126408958411E+03   -0.14087E-01   -0.16257E-03  1087   0.104E-01    0.243E+00
RMM:   7    -0.126409159653E+03   -0.20124E-03   -0.61547E-04   876   0.512E-02    0.212E+00
RMM:   8    -0.126403776698E+03    0.53830E-02   -0.32922E-04   920   0.430E-02    0.596E-01
RMM:   9    -0.126424134869E+03   -0.20358E-01   -0.33790E-03  1214   0.146E-01    0.162E+00
RMM:  10    -0.126417726456E+03    0.64084E-02   -0.17811E-03  1120   0.131E-01    0.142E+00
RMM:  11    -0.126418008624E+03   -0.28217E-03   -0.47510E-04   986   0.601E-02    0.143E+00
RMM:  12    -0.126416357999E+03    0.16506E-02   -0.44797E-04   952   0.504E-02    0.127E+00
RMM:  13    -0.126416560312E+03   -0.20231E-03   -0.10728E-04   803   0.280E-02    0.118E+00
RMM:  14    -0.126416439998E+03    0.12031E-03   -0.15043E-04   845   0.277E-02    0.108E+00
RMM:  15    -0.126414856622E+03    0.15834E-02   -0.12262E-04   792   0.271E-02    0.867E-01
RMM:  16    -0.126414034653E+03    0.82197E-03   -0.89550E-05   748   0.242E-02    0.843E-01
RMM:  17    -0.126414160156E+03   -0.12550E-03   -0.23878E-05   602   0.149E-02    0.832E-01
RMM:  18    -0.126413888608E+03    0.27155E-03   -0.59140E-05   760   0.209E-02    0.547E-01
RMM:  19    -0.126414156925E+03   -0.26832E-03   -0.14257E-04   809   0.286E-02    0.440E-01
RMM:  20    -0.126414239927E+03   -0.83002E-04   -0.13542E-04   830   0.256E-02
   4 F= -.12641424E+03 E0= -.12640217E+03  d E =-.296237E+01  mag=    19.4164
 curvature:  -0.06 expect dE=-0.595E-02 dE for cont linesearch -0.620E-03
 ZBRENT: increasing intervall
 opt :   1.0320  next Energy=  -126.415850 (dE=-0.296E+01)
 bond charge predicted
       N       E                     dE             d eps       ncg     rms          rms(c)
DAV:   1    -0.126415400214E+03   -0.12433E-02   -0.24729E-02  1752   0.581E-01    0.153E-01
RMM:   2    -0.126451345548E+03   -0.35945E-01   -0.41224E-03  1371   0.143E-01    0.194E+00
RMM:   3    -0.126414872266E+03    0.36473E-01   -0.22164E-03  1232   0.122E-01    0.338E-01
RMM:   4    -0.126416149166E+03   -0.12769E-02   -0.12220E-03  1066   0.900E-02    0.326E-01
RMM:   5    -0.126417536553E+03   -0.13874E-02   -0.36680E-04   974   0.566E-02    0.796E-01
RMM:   6    -0.126416661836E+03    0.87472E-03   -0.25271E-04   813   0.433E-02    0.722E-01
RMM:   7    -0.126417305660E+03   -0.64382E-03   -0.15765E-04   844   0.295E-02    0.120E+00
RMM:   8    -0.126418407239E+03   -0.11016E-02   -0.11853E-03   924   0.823E-02    0.163E+00
RMM:   9    -0.126417564540E+03    0.84270E-03   -0.64373E-04   997   0.652E-02    0.193E+00
RMM:  10    -0.126413053505E+03    0.45110E-02   -0.19186E-04   851   0.466E-02    0.145E+00
RMM:  11    -0.126410919565E+03    0.21339E-02   -0.11727E-04   814   0.296E-02    0.158E-01
RMM:  12    -0.126416211486E+03   -0.52919E-02   -0.92681E-04   934   0.744E-02    0.449E-01
RMM:  13    -0.126415819755E+03    0.39173E-03   -0.37038E-04   811   0.471E-02    0.178E-01
RMM:  14    -0.126416078043E+03   -0.25829E-03   -0.45482E-05   679   0.195E-02    0.400E-01
RMM:  15    -0.126415875538E+03    0.20251E-03   -0.35589E-05   573   0.153E-02    0.252E-01
RMM:  16    -0.126416832657E+03   -0.95712E-03   -0.18830E-05   579   0.117E-02    0.664E-01
RMM:  17    -0.126417120195E+03   -0.28754E-03   -0.85080E-05   716   0.210E-02    0.789E-01
RMM:  18    -0.126416914060E+03    0.20614E-03   -0.34251E-05   554   0.133E-02    0.776E-01
RMM:  19    -0.126416756019E+03    0.15804E-03   -0.41114E-06   396   0.768E-03    0.721E-01
RMM:  20    -0.126416832701E+03   -0.76682E-04   -0.14969E-06   227   0.526E-03
   5 F= -.12641683E+03 E0= -.12640648E+03  d E =-.296496E+01  mag=    19.4206
 curvature:  -0.16 expect dE=-0.149E-01 dE for cont linesearch -0.121E-02
 ZBRENT: increasing intervall
 opt :   1.0685  next Energy=  -126.418820 (dE=-0.297E+01)
 bond charge predicted
       N       E                     dE             d eps       ncg     rms          rms(c)
DAV:   1    -0.126418149273E+03   -0.13933E-02   -0.96425E-02  1704   0.115E+00    0.586E-01
RMM:   2    -0.128550566987E+03   -0.21324E+01   -0.10069E-01  1387   0.603E-01    0.179E+01
RMM:   3    -0.126249642424E+03    0.23009E+01   -0.84867E-02  1387   0.659E-01    0.293E+00
RMM:   4    -0.126410145249E+03   -0.16050E+00   -0.15976E-02  1333   0.362E-01    0.267E+00
RMM:   5    -0.126416438083E+03   -0.62928E-02   -0.54227E-03  1319   0.189E-01    0.166E+00
RMM:   6    -0.126438381211E+03   -0.21943E-01   -0.55755E-03  1293   0.219E-01    0.175E+00
RMM:   7    -0.126418031238E+03    0.20350E-01   -0.18023E-03  1209   0.127E-01    0.117E+00
RMM:   8    -0.126416308853E+03    0.17224E-02   -0.41819E-04   953   0.571E-02    0.583E-01
RMM:   9    -0.126420846266E+03   -0.45374E-02   -0.54387E-04   951   0.584E-02    0.131E+00
RMM:  10    -0.126417548002E+03    0.32983E-02   -0.12203E-03  1078   0.775E-02    0.275E-01
RMM:  11    -0.126419501411E+03   -0.19534E-02   -0.16759E-03  1075   0.945E-02    0.824E-01
RMM:  12    -0.126417350252E+03    0.21512E-02   -0.13329E-03  1039   0.836E-02    0.228E-01
RMM:  13    -0.126418256376E+03   -0.90612E-03   -0.55061E-04   907   0.615E-02    0.120E-01
RMM:  14    -0.126418230171E+03    0.26206E-04   -0.58407E-05   777   0.287E-02
   6 F= -.12641823E+03 E0= -.12640616E+03  d E =-.296636E+01  mag=    19.4305
 curvature:  -0.27 expect dE=-0.257E-01 dE for cont linesearch -0.266E-02
 ZBRENT: increasing intervall
 opt :   1.1416  next Energy=  -126.424392 (dE=-0.297E+01)
 bond charge predicted
       N       E                     dE             d eps       ncg     rms          rms(c)
DAV:   1    -0.126419889843E+03   -0.16335E-02   -0.39271E-01  1808   0.230E+00    0.683E-01
RMM:   2    -0.126761599371E+03   -0.34171E+00   -0.68466E-02  1443   0.532E-01    0.665E+00
RMM:   3    -0.126393682279E+03    0.36792E+00   -0.36875E-02  1341   0.414E-01    0.549E-01
RMM:   4    -0.126442426517E+03   -0.48744E-01   -0.62504E-03  1301   0.230E-01    0.184E+00
RMM:   5    -0.126428904476E+03    0.13522E-01   -0.15939E-03  1104   0.112E-01    0.155E+00
RMM:   6    -0.126428593447E+03    0.31103E-03   -0.23846E-04   842   0.490E-02    0.159E+00
RMM:   7    -0.126428958251E+03   -0.36480E-03   -0.45637E-05   740   0.227E-02    0.164E+00
RMM:   8    -0.126423571703E+03    0.53865E-02   -0.14892E-03  1076   0.731E-02    0.127E+00
RMM:   9    -0.126423224715E+03    0.34699E-03   -0.18393E-03  1101   0.112E-01    0.217E-01
RMM:  10    -0.126424860600E+03   -0.16359E-02   -0.80843E-04   998   0.718E-02    0.967E-01
RMM:  11    -0.126421701952E+03    0.31586E-02   -0.70566E-04   960   0.621E-02    0.858E-01
RMM:  12    -0.126422938446E+03   -0.12365E-02   -0.75910E-04   877   0.708E-02    0.881E-01
RMM:  13    -0.126421693473E+03    0.12450E-02   -0.30428E-04   915   0.484E-02    0.168E-01
RMM:  14    -0.126423955836E+03   -0.22624E-02   -0.95685E-04   996   0.672E-02    0.548E-01
RMM:  15    -0.126423743706E+03    0.21213E-03   -0.42727E-04   894   0.538E-02    0.975E-02
RMM:  16    -0.126424157648E+03   -0.41394E-03   -0.15321E-04   764   0.295E-02    0.151E-01
RMM:  17    -0.126424090281E+03    0.67367E-04   -0.16763E-04   795   0.303E-02
   7 F= -.12642409E+03 E0= -.12641158E+03  d E =-.297222E+01  mag=    19.4385
 curvature:  -0.62 expect dE=-0.615E-01 dE for cont linesearch -0.674E-02
 ZBRENT: increasing intervall
 opt :   1.2878  next Energy=  -126.435941 (dE=-0.298E+01)
 bond charge predicted
       N       E                     dE             d eps       ncg     rms          rms(c)
DAV:   1    -0.126420861198E+03    0.32964E-02   -0.15732E+00  1760   0.462E+00    0.148E+00
RMM:   2    -0.128303501077E+03   -0.18826E+01   -0.30705E-01  1437   0.109E+00    0.124E+01
RMM:   3    -0.126325854561E+03    0.19776E+01   -0.16874E-01  1399   0.881E-01    0.240E+00
RMM:   4    -0.126474568796E+03   -0.14871E+00   -0.43358E-02  1382   0.540E-01    0.212E+00
RMM:   5    -0.126436059268E+03    0.38510E-01   -0.87248E-03  1356   0.244E-01    0.152E+00
RMM:   6    -0.126443155011E+03   -0.70957E-02   -0.67444E-03  1318   0.222E-01    0.169E+00
RMM:   7    -0.126432914194E+03    0.10241E-01   -0.27089E-03  1257   0.145E-01    0.358E-01
RMM:   8    -0.126432578583E+03    0.33561E-03   -0.14066E-03  1131   0.950E-02    0.435E-01
RMM:   9    -0.126432079460E+03    0.49912E-03   -0.72247E-04  1011   0.662E-02    0.215E-01
RMM:  10    -0.126432102996E+03   -0.23536E-04   -0.22609E-04   854   0.425E-02
   8 F= -.12643210E+03 E0= -.12641946E+03  d E =-.298023E+01  mag=    19.4336
 curvature:  -1.09 expect dE=-0.107E+00 dE for cont linesearch -0.968E-02
 ZBRENT: increasing intervall
 opt :   1.5802  next Energy=  -126.450440 (dE=-0.300E+01)
 bond charge predicted
       N       E                     dE             d eps       ncg     rms          rms(c)
DAV:   1    -0.126393530692E+03    0.38549E-01   -0.62912E+00  1672   0.925E+00    0.261E+00
RMM:   2    -0.130429071412E+03   -0.40355E+01   -0.67082E-01  1486   0.178E+00    0.165E+01
RMM:   3    -0.126339894536E+03    0.40892E+01   -0.46100E-01  1412   0.152E+00    0.625E+00
RMM:   4    -0.126421023017E+03   -0.81128E-01   -0.75588E-02  1428   0.868E-01    0.389E+00
RMM:   5    -0.126509963654E+03   -0.88941E-01   -0.85983E-02  1384   0.773E-01    0.277E+00
RMM:   6    -0.126539125151E+03   -0.29161E-01   -0.21974E-02  1333   0.379E-01    0.270E+00
RMM:   7    -0.126486240479E+03    0.52885E-01   -0.12086E-02  1340   0.230E-01    0.228E+00
RMM:   8    -0.126473130384E+03    0.13110E-01   -0.64234E-03  1295   0.189E-01    0.204E+00
RMM:   9    -0.126456716903E+03    0.16413E-01   -0.75638E-03  1331   0.198E-01    0.156E+00
RMM:  10    -0.126445939091E+03    0.10778E-01   -0.55606E-03  1248   0.173E-01    0.739E-01
RMM:  11    -0.126446479526E+03   -0.54044E-03   -0.13451E-03  1149   0.102E-01    0.129E+00
RMM:  12    -0.126443521966E+03    0.29576E-02   -0.13616E-03  1116   0.873E-02    0.424E-01
RMM:  13    -0.126443246545E+03    0.27542E-03   -0.11408E-03   977   0.741E-02    0.576E-01
RMM:  14    -0.126442949924E+03    0.29662E-03   -0.32153E-04   883   0.447E-02    0.467E-01
RMM:  15    -0.126444453672E+03   -0.15037E-02   -0.66504E-04   969   0.688E-02    0.517E-01
RMM:  16    -0.126446784212E+03   -0.23305E-02   -0.10036E-03  1043   0.741E-02    0.713E-01
RMM:  17    -0.126447484156E+03   -0.69994E-03   -0.88719E-04  1074   0.774E-02    0.224E-01
RMM:  18    -0.126450363196E+03   -0.28790E-02   -0.13390E-03  1084   0.877E-02    0.267E-01
RMM:  19    -0.126450471503E+03   -0.10831E-03   -0.26938E-04   900   0.567E-02    0.384E-01
RMM:  20    -0.126451979891E+03   -0.15084E-02   -0.32474E-04   917   0.472E-02    0.215E-01
RMM:  21    -0.126453204911E+03   -0.12250E-02   -0.13187E-04   836   0.307E-02    0.313E-01
RMM:  22    -0.126453673198E+03   -0.46829E-03   -0.68171E-05   750   0.205E-02    0.306E-01
RMM:  23    -0.126453567035E+03    0.10616E-03   -0.80595E-06   553   0.102E-02    0.303E-01
RMM:  24    -0.126453372719E+03    0.19432E-03   -0.85290E-06   585   0.105E-02    0.338E-01
RMM:  25    -0.126454118405E+03   -0.74569E-03   -0.52506E-05   722   0.185E-02    0.430E-01
RMM:  26    -0.126453947442E+03    0.17096E-03   -0.16015E-05   557   0.125E-02    0.464E-01
RMM:  27    -0.126453826079E+03    0.12136E-03   -0.50992E-06   403   0.788E-03    0.461E-01
RMM:  28    -0.126453796934E+03    0.29145E-04   -0.78600E-06   506   0.935E-03
   9 F= -.12645380E+03 E0= -.12644215E+03  d E =-.300192E+01  mag=    19.4071
 curvature:  -2.06 expect dE=-0.199E+00 dE for cont linesearch -0.113E-01
 ZBRENT: increasing intervall
 opt :   2.1650  next Energy=  -126.477249 (dE=-0.303E+01)
 bond charge predicted
       N       E                     dE             d eps       ncg     rms          rms(c)
DAV:   1    -0.126247878292E+03    0.20595E+00   -0.25201E+01  1664   0.185E+01    0.511E+00
RMM:   2    -0.153818006143E+03   -0.27570E+02   -0.23549E+00  1495   0.354E+00    0.587E+01
RMM:   3    -0.129457927191E+03    0.24360E+02   -0.84340E-01  1420   0.273E+00    0.174E+01
RMM:   4    -0.126004095004E+03    0.34538E+01   -0.11106E+00  1416   0.261E+00    0.342E+00
RMM:   5    -0.127686697464E+03   -0.16826E+01   -0.49442E-01  1429   0.161E+00    0.153E+01
RMM:   6    -0.126372386804E+03    0.13143E+01   -0.11095E-01  1416   0.900E-01    0.537E+00
RMM:   7    -0.126466539195E+03   -0.94152E-01   -0.94551E-02  1392   0.831E-01    0.385E+00
RMM:   8    -0.126508993958E+03   -0.42455E-01   -0.28950E-02  1389   0.473E-01    0.355E+00
RMM:   9    -0.126516421600E+03   -0.74276E-02   -0.18259E-02  1363   0.392E-01    0.337E+00
RMM:  10    -0.126539336155E+03   -0.22915E-01   -0.93189E-03  1372   0.245E-01    0.313E+00
RMM:  11    -0.126538987383E+03    0.34877E-03   -0.99198E-03  1309   0.262E-01    0.290E+00
RMM:  12    -0.126529201024E+03    0.97864E-02   -0.67437E-03  1322   0.199E-01    0.261E+00
RMM:  13    -0.126516786163E+03    0.12415E-01   -0.52588E-03  1248   0.148E-01    0.236E+00
RMM:  14    -0.126497515609E+03    0.19271E-01   -0.35562E-03  1213   0.123E-01    0.210E+00
RMM:  15    -0.126481305842E+03    0.16210E-01   -0.49278E-03  1295   0.144E-01    0.157E+00
RMM:  16    -0.126482369581E+03   -0.10637E-02   -0.21068E-03  1141   0.130E-01    0.942E-01
RMM:  17    -0.126479154200E+03    0.32154E-02   -0.16251E-03  1178   0.109E-01    0.506E-01
RMM:  18    -0.126478478204E+03    0.67600E-03   -0.67949E-04  1028   0.737E-02    0.409E-01
RMM:  19    -0.126479831740E+03   -0.13535E-02   -0.13312E-03  1151   0.965E-02    0.154E+00
RMM:  20    -0.126479425020E+03    0.40672E-03   -0.10953E-03  1038   0.101E-01    0.184E+00
RMM:  21    -0.126475525386E+03    0.38996E-02   -0.19638E-04   864   0.468E-02    0.159E+00
RMM:  22    -0.126474788261E+03    0.73712E-03   -0.20596E-03  1147   0.107E-01    0.359E-01
RMM:  23    -0.126481283894E+03   -0.64956E-02   -0.10570E-03  1062   0.910E-02    0.210E-01
RMM:  24    -0.126482594419E+03   -0.13105E-02   -0.55159E-04   923   0.633E-02    0.569E-01
RMM:  25    -0.126483560986E+03   -0.96657E-03   -0.38925E-04   908   0.522E-02    0.624E-01
RMM:  26    -0.126484010587E+03   -0.44960E-03   -0.13210E-04   839   0.301E-02    0.296E-01
RMM:  27    -0.126485826739E+03   -0.18162E-02   -0.19464E-04   847   0.328E-02    0.544E-01
RMM:  28    -0.126485335401E+03    0.49134E-03   -0.65927E-05   720   0.214E-02    0.475E-01
RMM:  29    -0.126485217721E+03    0.11768E-03   -0.20403E-05   652   0.136E-02    0.430E-01
RMM:  30    -0.126484696911E+03    0.52081E-03   -0.30309E-05   698   0.149E-02    0.434E-01
RMM:  31    -0.126484318253E+03    0.37866E-03   -0.68671E-06   500   0.886E-03    0.330E-01
RMM:  32    -0.126484005148E+03    0.31311E-03   -0.17715E-05   619   0.119E-02    0.237E-01
RMM:  33    -0.126484301240E+03   -0.29609E-03   -0.23714E-05   682   0.151E-02    0.270E-01
RMM:  34    -0.126484473025E+03   -0.17179E-03   -0.17738E-05   635   0.121E-02    0.227E-01
RMM:  35    -0.126484633074E+03   -0.16005E-03   -0.20082E-05   665   0.127E-02    0.174E-01
RMM:  36    -0.126484747048E+03   -0.11397E-03   -0.24318E-05   650   0.137E-02    0.661E-02
RMM:  37    -0.126484804027E+03   -0.56979E-04   -0.68541E-05   711   0.201E-02
  10 F= -.12648480E+03 E0= -.12647238E+03  d E =-.303293E+01  mag=    19.4372
 curvature:  -4.27 expect dE=-0.489E+00 dE for cont linesearch -0.186E-01
 ZBRENT: increasing intervall
 opt :   3.3346  next Energy=  -126.535089 (dE=-0.308E+01)
 bond charge predicted
       N       E                     dE             d eps       ncg     rms          rms(c)
DAV:   1    -0.125384522323E+03    0.11002E+01   -0.10449E+02  1640   0.369E+01    0.819E+00
RMM:   2    -0.172341235941E+03   -0.46957E+02   -0.69696E+00  1544   0.623E+00    0.686E+01
RMM:   3    -0.132414706288E+03    0.39927E+02   -0.16054E+00  1428   0.400E+00    0.288E+01
RMM:   4    -0.125102497602E+03    0.73122E+01   -0.23144E+00  1412   0.359E+00    0.128E+01
RMM:   5    -0.124632602480E+03    0.46990E+00   -0.70183E-01  1417   0.200E+00    0.146E+01
RMM:   6    -0.124313636801E+03    0.31897E+00   -0.47595E-01  1414   0.165E+00    0.182E+01
RMM:   7    -0.125641316530E+03   -0.13277E+01   -0.51915E-01  1407   0.158E+00    0.122E+01
RMM:   8    -0.126011977671E+03   -0.37066E+00   -0.23669E-01  1393   0.110E+00    0.701E+00
RMM:   9    -0.126916396270E+03   -0.90442E+00   -0.40218E-01  1418   0.132E+00    0.131E+01
RMM:  10    -0.126384637315E+03    0.53176E+00   -0.71692E-02  1393   0.713E-01    0.507E+00
RMM:  11    -0.126386706534E+03   -0.20692E-02   -0.44254E-02  1378   0.539E-01    0.422E+00
RMM:  12    -0.126331358485E+03    0.55348E-01   -0.11264E-02  1335   0.321E-01    0.417E+00
RMM:  13    -0.126313913599E+03    0.17445E-01   -0.13349E-03  1118   0.117E-01    0.423E+00
RMM:  14    -0.126319644155E+03   -0.57306E-02   -0.29680E-03  1216   0.135E-01    0.424E+00
RMM:  15    -0.126330869162E+03   -0.11225E-01   -0.17911E-02  1330   0.263E-01    0.349E+00
RMM:  16    -0.126368420964E+03   -0.37552E-01   -0.83715E-03  1297   0.207E-01    0.258E+00
RMM:  17    -0.126381586819E+03   -0.13166E-01   -0.41789E-03  1265   0.179E-01    0.253E+00
RMM:  18    -0.126402661876E+03   -0.21075E-01   -0.13199E-02  1323   0.284E-01    0.214E+00
RMM:  19    -0.126449210550E+03   -0.46549E-01   -0.18704E-02  1345   0.355E-01    0.337E+00
RMM:  20    -0.126485510656E+03   -0.36300E-01   -0.26978E-02  1352   0.370E-01    0.299E+00
RMM:  21    -0.126478427019E+03    0.70836E-02   -0.12034E-02  1327   0.241E-01    0.197E+00
RMM:  22    -0.126482659531E+03   -0.42325E-02   -0.67520E-03  1359   0.215E-01    0.134E+00
RMM:  23    -0.126489761493E+03   -0.71020E-02   -0.44066E-03  1276   0.180E-01    0.172E+00
RMM:  24    -0.126485825824E+03    0.39357E-02   -0.24545E-03  1206   0.150E-01    0.129E+00
RMM:  25    -0.126479150516E+03    0.66753E-02   -0.16421E-03  1141   0.107E-01    0.839E-01
RMM:  26    -0.126479497594E+03   -0.34708E-03   -0.91964E-04  1025   0.670E-02    0.119E+00
RMM:  27    -0.126476065905E+03    0.34317E-02   -0.29508E-04   912   0.480E-02    0.127E+00
RMM:  28    -0.126484465262E+03   -0.83994E-02   -0.10013E-03  1031   0.769E-02    0.148E+00
RMM:  29    -0.126493451157E+03   -0.89859E-02   -0.27169E-03  1161   0.121E-01    0.137E+00
RMM:  30    -0.126496769167E+03   -0.33180E-02   -0.14864E-03  1066   0.920E-02    0.156E+00
RMM:  31    -0.126497191433E+03   -0.42227E-03   -0.32442E-04   911   0.491E-02    0.156E+00
RMM:  32    -0.126498079288E+03   -0.88786E-03   -0.47121E-04   964   0.528E-02    0.162E+00
RMM:  33    -0.126498368032E+03   -0.28874E-03   -0.30998E-03  1197   0.133E-01    0.142E+00
RMM:  34    -0.126497462152E+03    0.90588E-03   -0.74324E-04  1061   0.801E-02    0.111E+00
RMM:  35    -0.126498121897E+03   -0.65974E-03   -0.84699E-04   983   0.673E-02    0.114E+00
RMM:  36    -0.126496490109E+03    0.16318E-02   -0.12035E-03  1042   0.879E-02    0.160E+00
RMM:  37    -0.126491759386E+03    0.47307E-02   -0.11616E-03  1097   0.960E-02    0.578E-01
RMM:  38    -0.126490501101E+03    0.12583E-02   -0.12450E-03   985   0.781E-02    0.507E-01
RMM:  39    -0.126491380023E+03   -0.87892E-03   -0.22908E-04   868   0.377E-02    0.535E-01
RMM:  40    -0.126492577896E+03   -0.11979E-02   -0.78947E-04   975   0.674E-02    0.488E-01
RMM:  41    -0.126493864369E+03   -0.12865E-02   -0.63100E-04   993   0.624E-02    0.474E-01
RMM:  42    -0.126495254679E+03   -0.13903E-02   -0.49919E-04   865   0.573E-02    0.543E-01
RMM:  43    -0.126495595736E+03   -0.34106E-03   -0.17427E-04   828   0.408E-02    0.153E-01
RMM:  44    -0.126496176625E+03   -0.58089E-03   -0.14812E-04   799   0.335E-02    0.197E-01
RMM:  45    -0.126497032719E+03   -0.85609E-03   -0.13843E-04   817   0.313E-02    0.671E-02
RMM:  46    -0.126497280884E+03   -0.24816E-03   -0.11716E-04   754   0.277E-02    0.122E-01
RMM:  47    -0.126496946348E+03    0.33454E-03   -0.34509E-04   892   0.436E-02    0.132E-01
RMM:  48    -0.126497098451E+03   -0.15210E-03   -0.67051E-05   711   0.281E-02    0.137E-01
RMM:  49    -0.126497261046E+03   -0.16260E-03   -0.25768E-05   613   0.149E-02    0.118E-01
RMM:  50    -0.126497310853E+03   -0.49807E-04   -0.13590E-05   556   0.110E-02
  11 F= -.12649731E+03 E0= -.12648377E+03  d E =-.304544E+01  mag=    19.3321
 curvature: -11.57 expect dE=-0.197E+01 dE for cont linesearch -0.261E-01
 ZBRENT: bracketing found
 ZBRENT: interpolating
 opt :   2.8447  next Energy=  -126.505973 (dE=-0.305E+01)
 bond charge predicted
       N       E                     dE             d eps       ncg     rms          rms(c)
DAV:   1    -0.126354155095E+03    0.14311E+00   -0.17920E+01  1664   0.157E+01    0.388E+00
RMM:   2    -0.132544086898E+03   -0.61899E+01   -0.24042E+00  1534   0.308E+00    0.200E+01
RMM:   3    -0.128121541366E+03    0.44225E+01   -0.10250E+00  1420   0.224E+00    0.872E+00
RMM:   4    -0.126754464999E+03    0.13671E+01   -0.40997E-01  1437   0.164E+00    0.673E+00
RMM:   5    -0.126527600495E+03    0.22686E+00   -0.13118E-01  1411   0.922E-01    0.295E+00
RMM:   6    -0.126531354446E+03   -0.37540E-02   -0.37117E-02  1384   0.587E-01    0.240E+00
RMM:   7    -0.126537445137E+03   -0.60907E-02   -0.19123E-02  1353   0.347E-01    0.420E+00
RMM:   8    -0.126507444531E+03    0.30001E-01   -0.11891E-02  1355   0.312E-01    0.336E+00
RMM:   9    -0.126485569579E+03    0.21875E-01   -0.26139E-03  1298   0.168E-01    0.120E+00
RMM:  10    -0.126501086250E+03   -0.15517E-01   -0.50159E-03  1308   0.186E-01    0.266E+00
RMM:  11    -0.126491528653E+03    0.95576E-02   -0.25431E-03  1241   0.138E-01    0.232E+00
RMM:  12    -0.126484185621E+03    0.73430E-02   -0.11979E-03  1094   0.895E-02    0.153E+00
RMM:  13    -0.126482829293E+03    0.13563E-02   -0.11056E-03  1177   0.103E-01    0.194E-01
RMM:  14    -0.126490725506E+03   -0.78962E-02   -0.11446E-03  1066   0.965E-02    0.822E-01
RMM:  15    -0.126490453809E+03    0.27170E-03   -0.32901E-04   911   0.594E-02    0.407E-01
RMM:  16    -0.126492612248E+03   -0.21584E-02   -0.31616E-04   910   0.484E-02    0.190E-01
RMM:  17    -0.126494209858E+03   -0.15976E-02   -0.48506E-04   899   0.536E-02    0.930E-02
RMM:  18    -0.126496113302E+03   -0.19034E-02   -0.63465E-04   945   0.497E-02    0.186E-01
RMM:  19    -0.126496849122E+03   -0.73582E-03   -0.36004E-04   877   0.438E-02    0.334E-01
RMM:  20    -0.126497489005E+03   -0.63988E-03   -0.29911E-04   881   0.389E-02    0.784E-02
RMM:  21    -0.126499274781E+03   -0.17858E-02   -0.19938E-04   814   0.309E-02    0.282E-01
RMM:  22    -0.126501064156E+03   -0.17894E-02   -0.15309E-04   811   0.287E-02    0.443E-02
RMM:  23    -0.126503353256E+03   -0.22891E-02   -0.11967E-04   810   0.268E-02    0.174E-01
RMM:  24    -0.126505160753E+03   -0.18075E-02   -0.92679E-05   758   0.264E-02    0.473E-02
RMM:  25    -0.126506299939E+03   -0.11392E-02   -0.42961E-05   685   0.178E-02    0.762E-02
RMM:  26    -0.126506967427E+03   -0.66749E-03   -0.35153E-05   620   0.162E-02    0.842E-02
RMM:  27    -0.126507329672E+03   -0.36224E-03   -0.10636E-05   511   0.967E-03    0.108E-01
RMM:  28    -0.126507503648E+03   -0.17398E-03   -0.67920E-06   414   0.789E-03    0.434E-02
RMM:  29    -0.126507637972E+03   -0.13432E-03   -0.16429E-05   423   0.903E-03    0.258E-02
RMM:  30    -0.126507690619E+03   -0.52647E-04   -0.19937E-05   449   0.105E-02
  12 F= -.12650769E+03 E0= -.12649387E+03  d E =-.305582E+01  mag=    19.1087
 curvature:  -3.84 expect dE=-0.529E+00 dE for cont linesearch -0.380E-03
 trial: gam= 0.23548 g(F)=  0.138E+00 g(S)=  0.000E+00 ort = 0.741E-02 (trialstep = 0.137E+01)
 search vector abs. value=  0.172E+00
 bond charge predicted
       N       E                     dE             d eps       ncg     rms          rms(c)
DAV:   1    -0.125891542204E+03    0.61610E+00   -0.47619E+01  1592   0.446E+01    0.660E+00
RMM:   2    -0.152200079143E+03   -0.26309E+02   -0.84358E+00  1565   0.765E+00    0.553E+01
RMM:   3    -0.128424319472E+03    0.23776E+02   -0.13542E+00  1426   0.373E+00    0.180E+01
RMM:   4    -0.127324188800E+03    0.11001E+01   -0.19167E+00  1418   0.343E+00    0.145E+01
RMM:   5    -0.126447870564E+03    0.87632E+00   -0.29516E-01  1432   0.149E+00    0.680E+00
RMM:   6    -0.126861922552E+03   -0.41405E+00   -0.43973E-01  1400   0.154E+00    0.927E+00
RMM:   7    -0.126723637737E+03    0.13828E+00   -0.31513E-01  1407   0.134E+00    0.128E+01
RMM:   8    -0.126799748532E+03   -0.76111E-01   -0.49771E-02  1387   0.708E-01    0.128E+01
RMM:   9    -0.126764970476E+03    0.34778E-01   -0.12891E-02  1362   0.298E-01    0.132E+01
RMM:  10    -0.126591514156E+03    0.17346E+00   -0.78139E-02  1373   0.579E-01    0.884E+00
RMM:  11    -0.126553219054E+03    0.38295E-01   -0.97748E-02  1394   0.808E-01    0.312E+00
RMM:  12    -0.126533727489E+03    0.19492E-01   -0.48745E-02  1382   0.539E-01    0.318E+00
RMM:  13    -0.126526295082E+03    0.74324E-02   -0.18933E-02  1398   0.384E-01    0.257E+00
RMM:  14    -0.126543569633E+03   -0.17275E-01   -0.94008E-03  1349   0.241E-01    0.256E+00
RMM:  15    -0.126540140840E+03    0.34288E-02   -0.60185E-03  1349   0.216E-01    0.170E+00
RMM:  16    -0.126573540740E+03   -0.33400E-01   -0.61962E-03  1328   0.200E-01    0.238E+00
RMM:  17    -0.126566197543E+03    0.73432E-02   -0.15443E-03  1116   0.995E-02    0.198E+00
RMM:  18    -0.126578519697E+03   -0.12322E-01   -0.68255E-03  1296   0.187E-01    0.157E+00
RMM:  19    -0.126595047305E+03   -0.16528E-01   -0.65251E-03  1287   0.197E-01    0.877E-01
RMM:  20    -0.126596159926E+03   -0.11126E-02   -0.43289E-03  1194   0.141E-01    0.798E-01
RMM:  21    -0.126598410458E+03   -0.22505E-02   -0.14423E-03  1104   0.918E-02    0.753E-01
RMM:  22    -0.126600792799E+03   -0.23823E-02   -0.45975E-04   927   0.558E-02    0.611E-01
RMM:  23    -0.126602909380E+03   -0.21166E-02   -0.67696E-04   898   0.540E-02    0.453E-01
RMM:  24    -0.126606314149E+03   -0.34048E-02   -0.55827E-04   909   0.522E-02    0.440E-01
RMM:  25    -0.126610614619E+03   -0.43005E-02   -0.11854E-03   979   0.739E-02    0.326E-01
RMM:  26    -0.126611677323E+03   -0.10627E-02   -0.12410E-04   835   0.306E-02    0.252E-01
RMM:  27    -0.126612911505E+03   -0.12342E-02   -0.11183E-04   820   0.271E-02    0.203E-01
RMM:  28    -0.126613504870E+03   -0.59336E-03   -0.42290E-05   737   0.171E-02    0.155E-01
RMM:  29    -0.126613677526E+03   -0.17266E-03   -0.17227E-05   622   0.129E-02    0.146E-01
RMM:  30    -0.126613943768E+03   -0.26624E-03   -0.53976E-05   735   0.195E-02    0.225E-01
RMM:  31    -0.126614603526E+03   -0.65976E-03   -0.41252E-05   742   0.212E-02    0.184E-01
RMM:  32    -0.126614849578E+03   -0.24605E-03   -0.51295E-05   753   0.201E-02    0.244E-01
RMM:  33    -0.126614639921E+03    0.20966E-03   -0.21483E-05   687   0.143E-02    0.214E-01
RMM:  34    -0.126614542772E+03    0.97149E-04   -0.89060E-06   613   0.104E-02
  13 F= -.12661454E+03 E0= -.12660098E+03  d E =-.106852E+00  mag=    19.1393
 trial-energy change:   -0.106852  1 .order   -0.109407   -0.191090   -0.027725
 step:   1.6305(harm=  1.6013)  dis= 0.07634  next Energy=  -126.617174 (dE=-0.109E+00)
 bond charge predicted
       N       E                     dE             d eps       ncg     rms          rms(c)
DAV:   1    -0.126593039746E+03    0.21600E-01   -0.17324E+00  1720   0.853E+00    0.161E+00
RMM:   2    -0.128616652151E+03   -0.20236E+01   -0.53554E-01  1530   0.169E+00    0.128E+01
RMM:   3    -0.126607969439E+03    0.20087E+01   -0.20710E-01  1413   0.976E-01    0.323E+00
RMM:   4    -0.126764768982E+03   -0.15680E+00   -0.46011E-02  1393   0.583E-01    0.361E+00
RMM:   5    -0.126664106907E+03    0.10066E+00   -0.23880E-02  1357   0.411E-01    0.285E+00
RMM:   6    -0.126655243300E+03    0.88636E-02   -0.84569E-03  1305   0.229E-01    0.265E+00
RMM:   7    -0.126620749267E+03    0.34494E-01   -0.38834E-03  1283   0.144E-01    0.114E+00
RMM:   8    -0.126623261572E+03   -0.25123E-02   -0.40175E-03  1255   0.155E-01    0.190E+00
RMM:   9    -0.126615458292E+03    0.78033E-02   -0.14875E-03  1130   0.102E-01    0.808E-01
RMM:  10    -0.126616176313E+03   -0.71802E-03   -0.14980E-03  1166   0.991E-02    0.399E-01
RMM:  11    -0.126617427049E+03   -0.12507E-02   -0.10290E-03  1043   0.842E-02    0.352E-01
RMM:  12    -0.126617718512E+03   -0.29146E-03   -0.26537E-04   918   0.506E-02    0.249E-01
RMM:  13    -0.126618209376E+03   -0.49086E-03   -0.45614E-04   984   0.537E-02    0.157E-01
RMM:  14    -0.126618665615E+03   -0.45624E-03   -0.82630E-05   809   0.365E-02    0.500E-01
RMM:  15    -0.126618202146E+03    0.46347E-03   -0.11711E-04   799   0.299E-02    0.380E-01
RMM:  16    -0.126618074412E+03    0.12773E-03   -0.19529E-05   672   0.142E-02    0.212E-01
RMM:  17    -0.126618112601E+03   -0.38189E-04   -0.44351E-05   724   0.188E-02
  14 F= -.12661811E+03 E0= -.12660473E+03  d E =-.110422E+00  mag=    19.1676
 curvature:  -0.97 expect dE=-0.304E-01 dE for cont linesearch -0.115E-05
 trial: gam= 0.22046 g(F)=  0.313E-01 g(S)=  0.000E+00 ort =-0.451E-03 (trialstep = 0.142E+01)
 search vector abs. value=  0.394E-01
 bond charge predicted
       N       E                     dE             d eps       ncg     rms          rms(c)
DAV:   1    -0.126323437355E+03    0.29464E+00   -0.12794E+01  1720   0.320E+01    0.342E+00
RMM:   2    -0.130825056419E+03   -0.45016E+01   -0.33709E+00  1604   0.485E+00    0.171E+01
RMM:   3    -0.127547176610E+03    0.32779E+01   -0.72685E-01  1432   0.229E+00    0.153E+01
RMM:   4    -0.126466119619E+03    0.10811E+01   -0.11475E-01  1435   0.101E+00    0.383E+00
RMM:   5    -0.126940520180E+03   -0.47440E+00   -0.18434E-01  1408   0.104E+00    0.641E+00
RMM:   6    -0.126778881933E+03    0.16164E+00   -0.14068E-01  1422   0.866E-01    0.405E+00
RMM:   7    -0.126702851109E+03    0.76031E-01   -0.32995E-02  1361   0.518E-01    0.355E+00
RMM:   8    -0.126713732256E+03   -0.10881E-01   -0.16766E-02  1349   0.311E-01    0.348E+00
RMM:   9    -0.126681294761E+03    0.32437E-01   -0.95615E-03  1350   0.249E-01    0.315E+00
RMM:  10    -0.126674486787E+03    0.68080E-02   -0.56845E-03  1304   0.184E-01    0.293E+00
RMM:  11    -0.126632689787E+03    0.41797E-01   -0.57601E-03  1309   0.176E-01    0.179E+00
RMM:  12    -0.126636958456E+03   -0.42687E-02   -0.17429E-03  1165   0.114E-01    0.119E+00
RMM:  13    -0.126640851942E+03   -0.38935E-02   -0.94706E-04  1087   0.833E-02    0.163E+00
RMM:  14    -0.126634056232E+03    0.67957E-02   -0.12216E-03  1159   0.862E-02    0.814E-01
RMM:  15    -0.126633809908E+03    0.24632E-03   -0.11158E-03  1049   0.788E-02    0.108E+00
RMM:  16    -0.126634165398E+03   -0.35549E-03   -0.79220E-04  1049   0.672E-02    0.570E-01
RMM:  17    -0.126635503369E+03   -0.13380E-02   -0.16431E-03  1168   0.107E-01    0.402E-01
RMM:  18    -0.126636664483E+03   -0.11611E-02   -0.32531E-04   938   0.532E-02    0.522E-01
RMM:  19    -0.126637685507E+03   -0.10210E-02   -0.58323E-04  1005   0.648E-02    0.333E-01
RMM:  20    -0.126639780286E+03   -0.20948E-02   -0.12130E-03  1086   0.800E-02    0.234E-01
RMM:  21    -0.126640061084E+03   -0.28080E-03   -0.45899E-04   966   0.555E-02    0.138E-01
RMM:  22    -0.126640170223E+03   -0.10914E-03   -0.22099E-04   869   0.374E-02    0.453E-01
RMM:  23    -0.126639712298E+03    0.45792E-03   -0.31238E-04   859   0.481E-02    0.231E-01
RMM:  24    -0.126639675220E+03    0.37078E-04   -0.13031E-04   776   0.321E-02
  15 F= -.12663968E+03 E0= -.12662687E+03  d E =-.215626E-01  mag=    19.2336
 trial-energy change:   -0.021563  1 .order   -0.021580   -0.044296    0.001136
 step:   1.3857(harm=  1.3857)  dis= 0.02778  next Energy=  -126.639707 (dE=-0.216E-01)
 bond charge predicted
       N       E                     dE             d eps       ncg     rms          rms(c)
DAV:   1    -0.126639588132E+03    0.12417E-03   -0.97008E-03  1784   0.814E-01    0.400E-01
RMM:   2    -0.126836303128E+03   -0.19671E+00   -0.29524E-02  1357   0.323E-01    0.389E+00
RMM:   3    -0.126680859560E+03    0.15544E+00   -0.22908E-02  1333   0.306E-01    0.287E+00
RMM:   4    -0.126637945684E+03    0.42914E-01   -0.63185E-03  1302   0.247E-01    0.116E+00
RMM:   5    -0.126642053287E+03   -0.41076E-02   -0.32384E-03  1230   0.155E-01    0.120E+00
RMM:   6    -0.126639523878E+03    0.25294E-02   -0.76001E-04  1034   0.814E-02    0.571E-01
RMM:   7    -0.126639324071E+03    0.19981E-03   -0.38685E-04   864   0.457E-02    0.181E-01
RMM:   8    -0.126640231408E+03   -0.90734E-03   -0.22786E-04   838   0.405E-02    0.392E-01
RMM:   9    -0.126640019256E+03    0.21215E-03   -0.56876E-05   743   0.211E-02    0.682E-02
RMM:  10    -0.126640080707E+03   -0.61451E-04   -0.70866E-05   713   0.214E-02
  16 F= -.12664008E+03 E0= -.12662708E+03  d E =-.219681E-01  mag=    19.2391
 curvature:  -0.88 expect dE=-0.722E-02 dE for cont linesearch -0.920E-06
 trial: gam= 0.23069 g(F)=  0.824E-02 g(S)=  0.000E+00 ort =-0.203E-03 (trialstep = 0.141E+01)
 search vector abs. value=  0.102E-01
 bond charge predicted
       N       E                     dE             d eps       ncg     rms          rms(c)
DAV:   1    -0.126615875328E+03    0.24144E-01   -0.24612E+00  1672   0.106E+01    0.105E+00
RMM:   2    -0.126669126629E+03   -0.53251E-01   -0.35447E-01  1563   0.176E+00    0.216E+00
RMM:   3    -0.126898513027E+03   -0.22939E+00   -0.39239E-02  1374   0.579E-01    0.958E+00
RMM:   4    -0.126712015677E+03    0.18650E+00   -0.37840E-02  1386   0.454E-01    0.262E+00
RMM:   5    -0.126672394060E+03    0.39622E-01   -0.26857E-02  1364   0.425E-01    0.309E+00
RMM:   6    -0.126642010973E+03    0.30383E-01   -0.10357E-02  1313   0.257E-01    0.119E+00
RMM:   7    -0.126648665339E+03   -0.66544E-02   -0.33445E-03  1317   0.174E-01    0.148E+00
RMM:   8    -0.126648007824E+03    0.65752E-03   -0.21648E-03  1224   0.146E-01    0.734E-01
RMM:   9    -0.126648050145E+03   -0.42321E-04   -0.49205E-04  1010   0.640E-02
  17 F= -.12664805E+03 E0= -.12663441E+03  d E =-.796944E-02  mag=    19.2370
 trial-energy change:   -0.007969  1 .order   -0.008249   -0.011584   -0.004913
 step:   2.4558(harm=  2.4558)  dis= 0.03670  next Energy=  -126.650139 (dE=-0.101E-01)
 bond charge predicted
       N       E                     dE             d eps       ncg     rms          rms(c)
DAV:   1    -0.126631428181E+03    0.16580E-01   -0.13309E+00  1652   0.782E+00    0.827E-01
RMM:   2    -0.126761927849E+03   -0.13050E+00   -0.21141E-01  1563   0.135E+00    0.487E+00
RMM:   3    -0.126735732172E+03    0.26196E-01   -0.22342E-02  1388   0.480E-01    0.325E+00
RMM:   4    -0.126670340692E+03    0.65391E-01   -0.31436E-02  1346   0.442E-01    0.214E+00
RMM:   5    -0.126653940805E+03    0.16400E-01   -0.10099E-02  1344   0.280E-01    0.107E+00
RMM:   6    -0.126655440430E+03   -0.14996E-02   -0.52326E-03  1301   0.185E-01    0.184E+00
RMM:   7    -0.126654408708E+03    0.10317E-02   -0.34188E-03  1245   0.148E-01    0.161E+00
RMM:   8    -0.126647624533E+03    0.67842E-02   -0.17837E-03  1165   0.103E-01    0.726E-01
RMM:   9    -0.126644547475E+03    0.30771E-02   -0.27779E-03  1171   0.118E-01    0.274E-01
RMM:  10    -0.126645455272E+03   -0.90780E-03   -0.63908E-04  1019   0.683E-02    0.374E-01
RMM:  11    -0.126646875149E+03   -0.14199E-02   -0.63159E-04   981   0.645E-02    0.189E-01
RMM:  12    -0.126648632484E+03   -0.17573E-02   -0.72811E-04  1013   0.659E-02    0.357E-01
RMM:  13    -0.126649637213E+03   -0.10047E-02   -0.52411E-04   970   0.589E-02    0.413E-01
RMM:  14    -0.126649754737E+03   -0.11752E-03   -0.17246E-04   837   0.364E-02    0.263E-01
RMM:  15    -0.126649510142E+03    0.24460E-03   -0.15548E-04   858   0.319E-02    0.186E-01
RMM:  16    -0.126649606493E+03   -0.96352E-04   -0.19621E-04   795   0.407E-02
  18 F= -.12664961E+03 E0= -.12663659E+03  d E =-.952579E-02  mag=    19.2553
 curvature:  -1.54 expect dE=-0.706E-02 dE for cont linesearch -0.614E-04
 trial: gam= 0.64903 g(F)=  0.460E-02 g(S)=  0.000E+00 ort =-0.640E-03 (trialstep = 0.162E+01)
 search vector abs. value=  0.808E-02
 bond charge predicted
       N       E                     dE             d eps       ncg     rms          rms(c)
DAV:   1    -0.126639948732E+03    0.95614E-02   -0.19452E+00  1592   0.727E+00    0.113E+00
RMM:   2    -0.128550627721E+03   -0.19107E+01   -0.30486E-01  1504   0.151E+00    0.167E+01
RMM:   3    -0.126612996541E+03    0.19376E+01   -0.13514E-01  1407   0.934E-01    0.309E+00
RMM:   4    -0.126690390238E+03   -0.77394E-01   -0.47731E-02  1374   0.609E-01    0.343E+00
RMM:   5    -0.126665909434E+03    0.24481E-01   -0.11424E-02  1345   0.290E-01    0.246E+00
RMM:   6    -0.126647891224E+03    0.18018E-01   -0.10115E-02  1326   0.252E-01    0.113E+00
RMM:   7    -0.126653464839E+03   -0.55736E-02   -0.50211E-03  1310   0.202E-01    0.818E-01
RMM:   8    -0.126653059295E+03    0.40554E-03   -0.84523E-04  1101   0.874E-02    0.572E-01
RMM:   9    -0.126651797855E+03    0.12614E-02   -0.59487E-04  1064   0.704E-02    0.391E-01
RMM:  10    -0.126652206263E+03   -0.40841E-03   -0.71532E-04  1036   0.755E-02    0.520E-01
RMM:  11    -0.126652684544E+03   -0.47828E-03   -0.46687E-04   962   0.609E-02    0.452E-01
RMM:  12    -0.126652954063E+03   -0.26952E-03   -0.19020E-04   853   0.384E-02    0.347E-01
RMM:  13    -0.126652880131E+03    0.73932E-04   -0.15130E-04   839   0.352E-02
  19 F= -.12665288E+03 E0= -.12663939E+03  d E =-.327364E-02  mag=    19.2646
 trial-energy change:   -0.003274  1 .order   -0.003508   -0.006790   -0.000226
 step:   1.6783(harm=  1.6783)  dis= 0.02373  next Energy=  -126.653118 (dE=-0.351E-02)
 bond charge predicted
       N       E                     dE             d eps       ncg     rms          rms(c)
DAV:   1    -0.126652741448E+03    0.21262E-03   -0.30756E-03  1676   0.265E-01    0.101E-01
RMM:   2    -0.126682755631E+03   -0.30014E-01   -0.19130E-03  1220   0.916E-02    0.375E+00
RMM:   3    -0.126643544260E+03    0.39211E-01   -0.36894E-03  1212   0.150E-01    0.832E-01
RMM:   4    -0.126652667078E+03   -0.91228E-02   -0.24695E-03  1104   0.142E-01    0.185E-01
RMM:   5    -0.126652908125E+03   -0.24105E-03   -0.28800E-04   903   0.549E-02    0.220E-01
RMM:   6    -0.126652995729E+03   -0.87604E-04   -0.12762E-04   775   0.352E-02
  20 F= -.12665300E+03 E0= -.12663932E+03  d E =-.338924E-02  mag=    19.2649
 curvature:  -1.62 expect dE=-0.273E-02 dE for cont linesearch -0.136E-04
 trial: gam= 0.21323 g(F)=  0.168E-02 g(S)=  0.000E+00 ort =-0.261E-03 (trialstep = 0.163E+01)
 search vector abs. value=  0.194E-02
 bond charge predicted
       N       E                     dE             d eps       ncg     rms          rms(c)
DAV:   1    -0.126645458343E+03    0.74498E-02   -0.76626E-01  1672   0.526E+00    0.946E-01
RMM:   2    -0.127592005260E+03   -0.94655E+00   -0.19572E-01  1536   0.104E+00    0.122E+01
RMM:   3    -0.126581225605E+03    0.10108E+01   -0.79640E-02  1377   0.630E-01    0.178E+00
RMM:   4    -0.126715140340E+03   -0.13391E+00   -0.28928E-02  1363   0.447E-01    0.289E+00
RMM:   5    -0.126658419940E+03    0.56720E-01   -0.13004E-02  1326   0.309E-01    0.160E+00
RMM:   6    -0.126663389836E+03   -0.49699E-02   -0.81495E-03  1305   0.233E-01    0.200E+00
RMM:   7    -0.126661481863E+03    0.19080E-02   -0.20746E-03  1167   0.136E-01    0.167E+00
RMM:   8    -0.126650729261E+03    0.10753E-01   -0.11888E-03  1190   0.955E-02    0.288E-01
RMM:   9    -0.126653427129E+03   -0.26979E-02   -0.19905E-03  1094   0.107E-01    0.755E-01
RMM:  10    -0.126652436181E+03    0.99095E-03   -0.29883E-04   875   0.483E-02    0.405E-01
RMM:  11    -0.126653136249E+03   -0.70007E-03   -0.44035E-04   872   0.559E-02    0.189E-01
RMM:  12    -0.126653118958E+03    0.17291E-04   -0.48105E-05   775   0.255E-02
  21 F= -.12665312E+03 E0= -.12663973E+03  d E =-.123229E-03  mag=    19.2650
 trial-energy change:   -0.000123  1 .order   -0.001348   -0.002658   -0.000037
 step:   1.6568(harm=  1.6568)  dis= 0.00410  next Energy=  -126.654344 (dE=-0.135E-02)
 bond charge predicted
       N       E                     dE             d eps       ncg     rms          rms(c)
DAV:   1    -0.126653247525E+03   -0.11128E-03   -0.36192E-04  1112   0.948E-02    0.167E-01
RMM:   2    -0.126801116875E+03   -0.14787E+00   -0.58131E-03  1285   0.141E-01    0.599E+00
RMM:   3    -0.126631058433E+03    0.17006E+00   -0.10796E-02  1307   0.242E-01    0.493E-01
RMM:   4    -0.126653668264E+03   -0.22610E-01   -0.37466E-03  1163   0.177E-01    0.422E-01
RMM:   5    -0.126653589541E+03    0.78723E-04   -0.12909E-03  1020   0.829E-02    0.318E-01
RMM:   6    -0.126653591484E+03   -0.19431E-05   -0.25730E-04   877   0.528E-02
  22 F= -.12665359E+03 E0= -.12664049E+03  d E =-.595755E-03  mag=    19.2659
 curvature:  -0.99 expect dE=-0.602E-03 dE for cont linesearch -0.840E-04
 ZBRENT: interpolating
 opt :   1.6349  next Energy=  -126.653119 (dE=-0.123E-03)
 bond charge predicted
       N       E                     dE             d eps       ncg     rms          rms(c)
DAV:   1    -0.126653726323E+03   -0.13678E-03   -0.24373E-04  1072   0.929E-02    0.307E-01
RMM:   2    -0.127198380871E+03   -0.54465E+00   -0.23346E-02  1322   0.271E-01    0.148E+01
RMM:   3    -0.126530362824E+03    0.66802E+00   -0.39825E-02  1353   0.443E-01    0.125E+00
RMM:   4    -0.126646810089E+03   -0.11645E+00   -0.11581E-02  1288   0.293E-01    0.125E+00
RMM:   5    -0.126652020847E+03   -0.52108E-02   -0.20471E-03  1173   0.129E-01    0.660E-01
RMM:   6    -0.126653888460E+03   -0.18676E-02   -0.15857E-03  1114   0.999E-02    0.717E-01
RMM:   7    -0.126654174381E+03   -0.28592E-03   -0.79353E-04  1011   0.835E-02    0.819E-01
RMM:   8    -0.126653069531E+03    0.11048E-02   -0.17658E-04   832   0.427E-02    0.478E-01
RMM:   9    -0.126653501002E+03   -0.43147E-03   -0.83533E-05   753   0.237E-02    0.426E-01
RMM:  10    -0.126653547438E+03   -0.46436E-04   -0.26457E-05   631   0.150E-02
  23 F= -.12665355E+03 E0= -.12664032E+03  d E =-.551709E-03  mag=    19.2677
 curvature:   0.00 expect dE=-0.764E-07 dE for cont linesearch -0.523E-08
 ZBRENT: interpolating
 opt :   1.6337  next Energy=  -126.653119 (dE=-0.123E-03)
 bond charge predicted
       N       E                     dE             d eps       ncg     rms          rms(c)
DAV:   1    -0.126653900461E+03   -0.39946E-03   -0.17803E-04   984   0.225E-02    0.630E-02
RMM:   2    -0.126672016802E+03   -0.18116E-01   -0.83728E-04   980   0.504E-02    0.297E+00
RMM:   3    -0.126644819549E+03    0.27197E-01   -0.24387E-03  1116   0.127E-01    0.308E-01
RMM:   4    -0.126654380479E+03   -0.95609E-02   -0.12421E-03  1012   0.104E-01    0.430E-01
RMM:   5    -0.126654279961E+03    0.10052E-03   -0.10890E-04   764   0.360E-02    0.404E-01
RMM:   6    -0.126654033612E+03    0.24635E-03   -0.37054E-05   677   0.213E-02    0.171E-01
RMM:   7    -0.126653956116E+03    0.77496E-04   -0.66998E-05   674   0.196E-02
  24 F= -.12665396E+03 E0= -.12664067E+03  d E =-.960386E-03  mag=    19.2688
 curvature:   0.00 expect dE=-0.153E-07 dE for cont linesearch -0.636E-09
 ZBRENT: interpolating
 opt :   1.6337  next Energy=  -126.653119 (dE=-0.123E-03)
 bond charge predicted
       N       E                     dE             d eps       ncg     rms          rms(c)
DAV:   1    -0.126653979651E+03    0.53961E-04   -0.24344E-04  1112   0.323E-02    0.236E-02
RMM:   2    -0.126654380015E+03   -0.40036E-03   -0.92943E-05   743   0.230E-02    0.326E-01
RMM:   3    -0.126653943612E+03    0.43640E-03   -0.11869E-04   769   0.339E-02    0.100E-01
RMM:   4    -0.126653995485E+03   -0.51873E-04   -0.17733E-05   615   0.163E-02
  25 F= -.12665400E+03 E0= -.12664058E+03  d E =-.999756E-03  mag=    19.2691
 curvature:   0.00 expect dE=-0.265E-08 dE for cont linesearch -0.419E-11
 trial: gam= 0.11809 g(F)=  0.366E-03 g(S)=  0.000E+00 ort = 0.335E-04 (trialstep = 0.163E+01)
 search vector abs. value=  0.401E-03
 bond charge predicted
       N       E                     dE             d eps       ncg     rms          rms(c)
DAV:   1    -0.126651907547E+03    0.20361E-02   -0.14483E-01  1784   0.283E+00    0.422E-01
RMM:   2    -0.126844458508E+03   -0.19255E+00   -0.45483E-02  1513   0.550E-01    0.352E+00
RMM:   3    -0.126657568367E+03    0.18689E+00   -0.18383E-02  1340   0.323E-01    0.162E+00
RMM:   4    -0.126664245126E+03   -0.66768E-02   -0.48505E-03  1302   0.218E-01    0.188E+00
RMM:   5    -0.126660702666E+03    0.35425E-02   -0.42548E-03  1259   0.182E-01    0.168E+00
RMM:   6    -0.126655792244E+03    0.49104E-02   -0.13703E-03  1113   0.952E-02    0.837E-01
RMM:   7    -0.126653275161E+03    0.25171E-02   -0.18742E-03  1088   0.928E-02    0.500E-01
RMM:   8    -0.126653971370E+03   -0.69621E-03   -0.33059E-04   908   0.576E-02    0.334E-01
RMM:   9    -0.126654068418E+03   -0.97048E-04   -0.78106E-05   801   0.333E-02
  26 F= -.12665407E+03 E0= -.12664055E+03  d E =-.729330E-04  mag=    19.2673
 trial-energy change:   -0.000073  1 .order   -0.000363   -0.000604   -0.000122
 step:   2.0456(harm=  2.0456)  dis= 0.00373  next Energy=  -126.654373 (dE=-0.378E-03)
 bond charge predicted
       N       E                     dE             d eps       ncg     rms          rms(c)
DAV:   1    -0.126654092934E+03   -0.12156E-03   -0.93786E-03  1760   0.725E-01    0.924E-02
RMM:   2    -0.126675392820E+03   -0.21300E-01   -0.23902E-03  1369   0.135E-01    0.318E+00
RMM:   3    -0.126644848057E+03    0.30545E-01   -0.27514E-03  1158   0.139E-01    0.372E-01
RMM:   4    -0.126654686421E+03   -0.98384E-02   -0.14120E-03  1059   0.113E-01    0.428E-01
RMM:   5    -0.126654255913E+03    0.43051E-03   -0.17170E-04   836   0.465E-02    0.105E-01
RMM:   6    -0.126654315064E+03   -0.59151E-04   -0.19898E-04   794   0.388E-02
  27 F= -.12665432E+03 E0= -.12664108E+03  d E =-.319579E-03  mag=    19.2677
 curvature:  -1.11 expect dE=-0.600E-03 dE for cont linesearch -0.302E-04
 ZBRENT: interpolating
 opt :   1.8049  next Energy=  -126.654075 (dE=-0.793E-04)
 bond charge predicted
       N       E                     dE             d eps       ncg     rms          rms(c)
DAV:   1    -0.126654321081E+03   -0.65168E-04   -0.32737E-03  1672   0.424E-01    0.224E-01
RMM:   2    -0.126920707417E+03   -0.26639E+00   -0.12353E-02  1343   0.215E-01    0.867E+00
RMM:   3    -0.126611181362E+03    0.30953E+00   -0.19441E-02  1341   0.310E-01    0.848E-01
RMM:   4    -0.126649207387E+03   -0.38026E-01   -0.47994E-03  1214   0.203E-01    0.300E-01
RMM:   5    -0.126654709362E+03   -0.55020E-02   -0.94906E-04  1042   0.904E-02    0.296E-01
RMM:   6    -0.126654811575E+03   -0.10221E-03   -0.23531E-04   865   0.467E-02    0.559E-01
RMM:   7    -0.126654517449E+03    0.29413E-03   -0.35611E-04   860   0.533E-02    0.478E-01
RMM:   8    -0.126654156842E+03    0.36061E-03   -0.46066E-05   741   0.265E-02    0.320E-01
RMM:   9    -0.126654374036E+03   -0.21719E-03   -0.21842E-05   601   0.130E-02    0.239E-01
RMM:  10    -0.126654351460E+03    0.22577E-04   -0.20558E-05   541   0.115E-02
  28 F= -.12665435E+03 E0= -.12664094E+03  d E =-.355975E-03  mag=    19.2685
 curvature:  -0.23 expect dE=-0.698E-04 dE for cont linesearch -0.149E-07
 trial: gam= 0.83113 g(F)=  0.299E-03 g(S)=  0.000E+00 ort = 0.506E-05 (trialstep = 0.114E+01)
 search vector abs. value=  0.584E-03
 bond charge predicted
       N       E                     dE             d eps       ncg     rms          rms(c)
DAV:   1    -0.126653535446E+03    0.83859E-03   -0.85763E-02  1772   0.198E+00    0.249E-01
RMM:   2    -0.126732966442E+03   -0.79431E-01   -0.16421E-02  1528   0.366E-01    0.291E+00
RMM:   3    -0.126652103839E+03    0.80863E-01   -0.62751E-03  1312   0.200E-01    0.105E+00
RMM:   4    -0.126659792647E+03   -0.76888E-02   -0.30656E-03  1232   0.155E-01    0.984E-01
RMM:   5    -0.126655886973E+03    0.39057E-02   -0.12011E-03  1134   0.108E-01    0.115E+00
RMM:   6    -0.126656192269E+03   -0.30530E-03   -0.12232E-03  1069   0.104E-01    0.118E+00
RMM:   7    -0.126654108062E+03    0.20842E-02   -0.22838E-04   878   0.479E-02    0.611E-01
RMM:   8    -0.126653582136E+03    0.52593E-03   -0.24867E-04   832   0.393E-02    0.619E-02
RMM:   9    -0.126654670341E+03   -0.10882E-02   -0.35485E-04   854   0.444E-02    0.224E-01
RMM:  10    -0.126654649104E+03    0.21237E-04   -0.10839E-04   788   0.325E-02
  29 F= -.12665465E+03 E0= -.12664112E+03  d E =-.297645E-03  mag=    19.2676
 trial-energy change:   -0.000298  1 .order   -0.000275   -0.000347   -0.000204
 step:   2.7706(harm=  2.7706)  dis= 0.00369  next Energy=  -126.654771 (dE=-0.420E-03)
 bond charge predicted
       N       E                     dE             d eps       ncg     rms          rms(c)
DAV:   1    -0.126652409820E+03    0.22605E-02   -0.17303E-01  1784   0.282E+00    0.299E-01
RMM:   2    -0.126668925901E+03   -0.16516E-01   -0.22709E-02  1552   0.466E-01    0.186E+00
RMM:   3    -0.126670613278E+03   -0.16874E-02   -0.34196E-03  1281   0.186E-01    0.300E+00
RMM:   4    -0.126654117114E+03    0.16496E-01   -0.51940E-03  1290   0.208E-01    0.124E+00
RMM:   5    -0.126653310087E+03    0.80703E-03   -0.21755E-03  1205   0.128E-01    0.607E-01
RMM:   6    -0.126655683381E+03   -0.23733E-02   -0.20712E-03  1148   0.133E-01    0.716E-01
RMM:   7    -0.126653980131E+03    0.17032E-02   -0.36007E-04   928   0.580E-02    0.790E-02
RMM:   8    -0.126654605446E+03   -0.62531E-03   -0.26097E-04   840   0.415E-02    0.952E-02
RMM:   9    -0.126654645431E+03   -0.39985E-04   -0.59358E-05   797   0.271E-02
  30 F= -.12665465E+03 E0= -.12664127E+03  d E =-.293971E-03  mag=    19.2660
 curvature:  -2.67 expect dE=-0.540E-03 dE for cont linesearch -0.503E-05
 trial: gam= 0.80892 g(F)=  0.202E-03 g(S)=  0.000E+00 ort =-0.332E-04 (trialstep = 0.147E+01)
 search vector abs. value=  0.531E-03
 bond charge predicted
       N       E                     dE             d eps       ncg     rms          rms(c)
DAV:   1    -0.126653240073E+03    0.13654E-02   -0.13020E-01  1776   0.234E+00    0.263E-01
RMM:   2    -0.126709197466E+03   -0.55957E-01   -0.19471E-02  1550   0.409E-01    0.272E+00
RMM:   3    -0.126653277870E+03    0.55920E-01   -0.48385E-03  1299   0.192E-01    0.119E+00
RMM:   4    -0.126662308064E+03   -0.90302E-02   -0.34418E-03  1252   0.158E-01    0.131E+00
RMM:   5    -0.126654033974E+03    0.82741E-02   -0.15911E-03  1158   0.122E-01    0.639E-01
RMM:   6    -0.126656563372E+03   -0.25294E-02   -0.15884E-03  1116   0.115E-01    0.102E+00
RMM:   7    -0.126654558929E+03    0.20044E-02   -0.44322E-04   933   0.628E-02    0.690E-01
RMM:   8    -0.126653863165E+03    0.69576E-03   -0.11495E-04   813   0.343E-02    0.181E-01
RMM:   9    -0.126654880554E+03   -0.10174E-02   -0.47809E-04   860   0.502E-02    0.190E-01
RMM:  10    -0.126654830617E+03    0.49937E-04   -0.57269E-05   767   0.258E-02
  31 F= -.12665483E+03 E0= -.12664140E+03  d E =-.185186E-03  mag=    19.2638
 ZBRENT: can't locate minimum, use default step
 trial-energy change:   -0.000185  1 .order   -0.000228   -0.000258   -0.000198
 step:   5.8768(harm=  6.3275)  dis= 0.00134  next Energy=  -126.655200 (dE=-0.555E-03)
 bond charge predicted
       N       E                     dE             d eps       ncg     rms          rms(c)
DAV:   1    -0.126640472791E+03    0.14408E-01   -0.11786E+00  1724   0.702E+00    0.735E-01
RMM:   2    -0.126713247159E+03   -0.72774E-01   -0.13971E-01  1578   0.113E+00    0.268E+00
RMM:   3    -0.126784739487E+03   -0.71492E-01   -0.17927E-02  1380   0.403E-01    0.584E+00
RMM:   4    -0.126655466938E+03    0.12927E+00   -0.20013E-02  1362   0.381E-01    0.188E+00
RMM:   5    -0.126653130999E+03    0.23359E-02   -0.72117E-03  1305   0.208E-01    0.129E+00
RMM:   6    -0.126658685249E+03   -0.55543E-02   -0.53052E-03  1287   0.218E-01    0.120E+00
RMM:   7    -0.126652905106E+03    0.57801E-02   -0.11288E-03  1141   0.102E-01    0.339E-01
RMM:   8    -0.126654244687E+03   -0.13396E-02   -0.79520E-04  1054   0.728E-02    0.223E-01
RMM:   9    -0.126654556702E+03   -0.31201E-03   -0.42439E-04   959   0.644E-02    0.193E-01
RMM:  10    -0.126654851160E+03   -0.29446E-03   -0.15305E-04   827   0.392E-02    0.416E-01
RMM:  11    -0.126654707778E+03    0.14338E-03   -0.27315E-04   843   0.435E-02    0.248E-01
RMM:  12    -0.126654632664E+03    0.75114E-04   -0.29386E-05   727   0.194E-02
  32 F= -.12665463E+03 E0= -.12664156E+03  d E =0.127669E-04  mag=    19.2553
 curvature:  -9.49 expect dE=-0.541E-02 dE for cont linesearch -0.175E-03
 ZBRENT: interpolating
 opt :   4.0090  next Energy=  -126.654725 (dE=-0.797E-04)
 bond charge predicted
       N       E                     dE             d eps       ncg     rms          rms(c)
DAV:   1    -0.126652088007E+03    0.26198E-02   -0.21156E-01  1776   0.298E+00    0.363E-01
RMM:   2    -0.126886420502E+03   -0.23433E+00   -0.38261E-02  1541   0.541E-01    0.719E+00
RMM:   3    -0.126624998580E+03    0.26142E+00   -0.15719E-02  1339   0.328E-01    0.512E-01
RMM:   4    -0.126662201977E+03   -0.37203E-01   -0.67217E-03  1311   0.230E-01    0.133E+00
RMM:   5    -0.126653524497E+03    0.86775E-02   -0.14795E-03  1150   0.105E-01    0.322E-01
RMM:   6    -0.126655967501E+03   -0.24430E-02   -0.11593E-03  1106   0.990E-02    0.806E-01
RMM:   7    -0.126655784359E+03    0.18314E-03   -0.50205E-04   905   0.659E-02    0.785E-01
RMM:   8    -0.126654000937E+03    0.17834E-02   -0.24346E-04   917   0.484E-02    0.100E-01
RMM:   9    -0.126655297181E+03   -0.12962E-02   -0.40349E-04   875   0.464E-02    0.643E-01
RMM:  10    -0.126655243629E+03    0.53552E-04   -0.56789E-04   854   0.563E-02
  33 F= -.12665524E+03 E0= -.12664152E+03  d E =-.598198E-03  mag=    19.2578
 curvature:  -5.00 expect dE=-0.627E-02 dE for cont linesearch -0.205E-04
 ZBRENT: interpolating
 opt :   4.6066  next Energy=  -126.655258 (dE=-0.612E-03)
 bond charge predicted
       N       E                     dE             d eps       ncg     rms          rms(c)
DAV:   1    -0.126654806106E+03    0.49108E-03   -0.22130E-02  1800   0.953E-01    0.375E-01
RMM:   2    -0.126913117682E+03   -0.25831E+00   -0.33708E-02  1388   0.361E-01    0.401E+00
RMM:   3    -0.126655644534E+03    0.25747E+00   -0.22492E-02  1338   0.309E-01    0.642E-01
RMM:   4    -0.126660519833E+03   -0.48753E-02   -0.32949E-03  1256   0.164E-01    0.143E+00
RMM:   5    -0.126653804456E+03    0.67154E-02   -0.20696E-03  1186   0.120E-01    0.681E-01
RMM:   6    -0.126654282021E+03   -0.47756E-03   -0.42758E-04   938   0.582E-02    0.197E-01
RMM:   7    -0.126655223883E+03   -0.94186E-03   -0.51151E-04   869   0.561E-02    0.340E-01
RMM:   8    -0.126655201028E+03    0.22855E-04   -0.13846E-04   791   0.350E-02
  34 F= -.12665520E+03 E0= -.12664156E+03  d E =-.555598E-03  mag=    19.2570
 curvature:  -3.40 expect dE=-0.140E-02 dE for cont linesearch -0.575E-05
 trial: gam= 1.74086 g(F)=  0.412E-03 g(S)=  0.000E+00 ort = 0.299E-04 (trialstep = 0.524E+00)
 search vector abs. value=  0.213E-02
 bond charge predicted
       N       E                     dE             d eps       ncg     rms          rms(c)
DAV:   1    -0.126654009040E+03    0.12148E-02   -0.80273E-02  1740   0.179E+00    0.265E-01
RMM:   2    -0.126748643771E+03   -0.94635E-01   -0.18624E-02  1526   0.347E-01    0.302E+00
RMM:   3    -0.126654311444E+03    0.94332E-01   -0.75464E-03  1319   0.209E-01    0.116E+00
RMM:   4    -0.126657274496E+03   -0.29631E-02   -0.33180E-03  1224   0.168E-01    0.916E-01
RMM:   5    -0.126657491964E+03   -0.21747E-03   -0.16381E-03  1153   0.121E-01    0.115E+00
RMM:   6    -0.126655788564E+03    0.17034E-02   -0.25526E-04   834   0.464E-02    0.102E+00
RMM:   7    -0.126653051474E+03    0.27371E-02   -0.23244E-04   880   0.408E-02    0.381E-01
RMM:   8    -0.126654451468E+03   -0.14000E-02   -0.28656E-04   840   0.457E-02    0.765E-02
RMM:   9    -0.126654965624E+03   -0.51416E-03   -0.17376E-04   836   0.349E-02    0.220E-01
RMM:  10    -0.126654913442E+03    0.52182E-04   -0.11307E-04   791   0.331E-02
  35 F= -.12665491E+03 E0= -.12664148E+03  d E =0.287586E-03  mag=    19.2554
 trial-energy change:    0.000288  1 .order   -0.000150   -0.000243   -0.000057
 step:   0.6843(harm=  0.6843)  dis= 0.00000  next Energy=  -126.655360 (dE=-0.159E-03)
 bond charge predicted
       N       E                     dE             d eps       ncg     rms          rms(c)
DAV:   1    -0.126654813142E+03    0.15248E-03   -0.75690E-03  1744   0.550E-01    0.624E-02
RMM:   2    -0.126656064682E+03   -0.12515E-02   -0.86481E-04  1178   0.889E-02    0.820E-01
RMM:   3    -0.126654984838E+03    0.10798E-02   -0.73466E-04   894   0.646E-02    0.268E-01
RMM:   4    -0.126655490911E+03   -0.50607E-03   -0.72920E-04   917   0.633E-02    0.387E-01
RMM:   5    -0.126654808918E+03    0.68199E-03   -0.16561E-04   839   0.442E-02    0.108E-01
RMM:   6    -0.126654887196E+03   -0.78279E-04   -0.46530E-05   698   0.237E-02
  36 F= -.12665489E+03 E0= -.12664156E+03  d E =0.313832E-03  mag=    19.2554
 curvature:  -1.57 expect dE=-0.472E-03 dE for cont linesearch -0.206E-05
 trial: gam= 0.58224 g(F)=  0.302E-03 g(S)=  0.000E+00 ort =-0.529E-04 (trialstep = 0.556E+00)
 search vector abs. value=  0.961E-03
 bond charge predicted
       N       E                     dE             d eps       ncg     rms          rms(c)
DAV:   1    -0.126654462064E+03    0.34685E-03   -0.40033E-02  1752   0.137E+00    0.125E-01
RMM:   2    -0.126657514689E+03   -0.30526E-02   -0.53441E-03  1453   0.222E-01    0.110E+00
RMM:   3    -0.126654942678E+03    0.25720E-02   -0.13130E-03  1038   0.110E-01    0.546E-01
RMM:   4    -0.126656427018E+03   -0.14843E-02   -0.13438E-03  1034   0.956E-02    0.540E-01
RMM:   5    -0.126654677601E+03    0.17494E-02   -0.23652E-04   901   0.512E-02    0.897E-02
RMM:   6    -0.126655089648E+03   -0.41205E-03   -0.14176E-04   800   0.415E-02    0.128E-01
RMM:   7    -0.126655083059E+03    0.65893E-05   -0.24264E-05   701   0.177E-02
  37 F= -.12665508E+03 E0= -.12664160E+03  d E =-.195863E-03  mag=    19.2552
 ZBRENT: can't locate minimum, use default step
 trial-energy change:   -0.000196  1 .order   -0.000145   -0.000151   -0.000139
 step:   2.2231(harm=  7.4611)  dis= 0.00115  next Energy=  -126.655898 (dE=-0.101E-02)
 bond charge predicted
       N       E                     dE             d eps       ncg     rms          rms(c)
DAV:   1    -0.126650079809E+03    0.50098E-02   -0.36082E-01  1752   0.410E+00    0.427E-01
RMM:   2    -0.126789574088E+03   -0.13949E+00   -0.64094E-02  1592   0.711E-01    0.326E+00
RMM:   3    -0.126661729358E+03    0.12784E+00   -0.12635E-02  1334   0.307E-01    0.200E+00
RMM:   4    -0.126659501448E+03    0.22279E-02   -0.61079E-03  1305   0.237E-01    0.126E+00
RMM:   5    -0.126662143264E+03   -0.26418E-02   -0.38200E-03  1272   0.184E-01    0.171E+00
RMM:   6    -0.126660377825E+03    0.17654E-02   -0.70678E-04   908   0.708E-02    0.162E+00
RMM:   7    -0.126660101922E+03    0.27590E-03   -0.63705E-04  1026   0.663E-02    0.185E+00
RMM:   8    -0.126663535036E+03   -0.34331E-02   -0.16807E-04   833   0.382E-02    0.211E+00
RMM:   9    -0.126651458965E+03    0.12076E-01   -0.90012E-04   984   0.637E-02    0.358E-01
RMM:  10    -0.126654610746E+03   -0.31518E-02   -0.15457E-03   976   0.787E-02    0.996E-02
RMM:  11    -0.126655776830E+03   -0.11661E-02   -0.36507E-04   885   0.539E-02    0.586E-01
RMM:  12    -0.126655160209E+03    0.61662E-03   -0.44278E-04   868   0.544E-02    0.146E-01
RMM:  13    -0.126655215406E+03   -0.55197E-04   -0.36029E-04   771   0.387E-02
  38 F= -.12665522E+03 E0= -.12664190E+03  d E =-.328210E-03  mag=    19.2516
 curvature:  -5.62 expect dE=-0.941E-03 dE for cont linesearch -0.116E-03
 ZBRENT: increasing intervall
 opt :   5.5577  next Energy=  -126.655320 (dE=-0.433E-03)
 bond charge predicted
       N       E                     dE             d eps       ncg     rms          rms(c)
DAV:   1    -0.126634207366E+03    0.20953E-01   -0.14468E+00  1736   0.821E+00    0.758E-01
RMM:   2    -0.126748640095E+03   -0.11443E+00   -0.20721E-01  1600   0.133E+00    0.304E+00
RMM:   3    -0.126770813677E+03   -0.22174E-01   -0.21848E-02  1360   0.461E-01    0.572E+00
RMM:   4    -0.126642666342E+03    0.12815E+00   -0.18723E-02  1361   0.388E-01    0.116E+00
RMM:   5    -0.126662220398E+03   -0.19554E-01   -0.90605E-03  1322   0.264E-01    0.183E+00
RMM:   6    -0.126665019188E+03   -0.27988E-02   -0.31444E-03  1269   0.161E-01    0.199E+00
RMM:   7    -0.126657895200E+03    0.71240E-02   -0.16600E-03  1143   0.118E-01    0.112E+00
[...]
 opt :   0.9896  next Energy=  -128.580791 (dE=-0.322E-03)
 bond charge predicted
       N       E                     dE             d eps       ncg     rms          rms(c)
DAV:   1    -0.128580551455E+03    0.18358E-03   -0.23767E-02  1632   0.105E+00    0.107E-01
RMM:   2    -0.128590283379E+03   -0.97319E-02   -0.32372E-03  1446   0.172E-01    0.175E+00
RMM:   3    -0.128577173715E+03    0.13110E-01   -0.12113E-03  1082   0.109E-01    0.191E-01
RMM:   4    -0.128581098840E+03   -0.39251E-02   -0.99531E-04  1047   0.806E-02    0.314E-01
RMM:   5    -0.128580796354E+03    0.30249E-03   -0.22107E-04   875   0.495E-02    0.127E-01
RMM:   6    -0.128580921084E+03   -0.12473E-03   -0.40272E-05   723   0.245E-02    0.165E-01
RMM:   7    -0.128580871922E+03    0.49163E-04   -0.12041E-05   675   0.148E-02
  47 F= -.12858087E+03 E0= -.12856793E+03  d E =-.402479E-03  mag=    19.0688
 curvature:  -3.67 expect dE=-0.254E-02 dE for cont linesearch -0.527E-05
 trial: gam= 0.24889 g(F)=  0.691E-03 g(S)=  0.000E+00 ort = 0.956E-04 (trialstep = 0.431E+00)
 search vector abs. value=  0.113E-02
 bond charge predicted
       N       E                     dE             d eps       ncg     rms          rms(c)
DAV:   1    -0.128581122167E+03   -0.20108E-03   -0.25508E-02  1484   0.679E-01    0.104E-01
RMM:   2    -0.128638775300E+03   -0.57653E-01   -0.37718E-03  1375   0.148E-01    0.329E+00
RMM:   3    -0.128571749217E+03    0.67026E-01   -0.37184E-03  1262   0.162E-01    0.567E-01
RMM:   4    -0.128579363815E+03   -0.76146E-02   -0.99946E-04  1051   0.901E-02    0.144E-01
RMM:   5    -0.128581073591E+03   -0.17098E-02   -0.41503E-04   897   0.573E-02    0.108E-01
RMM:   6    -0.128581260240E+03   -0.18665E-03   -0.60987E-05   793   0.292E-02    0.226E-01
RMM:   7    -0.128581158524E+03    0.10172E-03   -0.66363E-05   781   0.272E-02    0.254E-02
RMM:   8    -0.128581253054E+03   -0.94530E-04   -0.37747E-05   672   0.169E-02
  48 F= -.12858125E+03 E0= -.12856863E+03  d E =-.381132E-03  mag=    19.0703
 trial-energy change:   -0.000381  1 .order   -0.000252   -0.000308   -0.000196
 step:   1.1806(harm=  1.1806)  dis= 0.00474  next Energy=  -128.581294 (dE=-0.422E-03)
 bond charge predicted
       N       E                     dE             d eps       ncg     rms          rms(c)
DAV:   1    -0.128581160416E+03   -0.18918E-05   -0.76916E-02  1552   0.118E+00    0.116E-01
RMM:   2    -0.128613073532E+03   -0.31913E-01   -0.55103E-03  1432   0.204E-01    0.295E+00
RMM:   3    -0.128573397938E+03    0.39676E-01   -0.26205E-03  1189   0.153E-01    0.626E-01
RMM:   4    -0.128580663871E+03   -0.72659E-02   -0.91473E-04  1057   0.861E-02    0.627E-01
RMM:   5    -0.128580429571E+03    0.23430E-03   -0.29759E-04   924   0.507E-02    0.208E-01
RMM:   6    -0.128581297194E+03   -0.86762E-03   -0.17585E-04   840   0.423E-02    0.204E-01
RMM:   7    -0.128581455583E+03   -0.15839E-03   -0.97974E-05   818   0.366E-02    0.288E-02
RMM:   8    -0.128581520357E+03   -0.64775E-04   -0.25613E-05   722   0.174E-02
  49 F= -.12858152E+03 E0= -.12856907E+03  d E =-.648436E-03  mag=    19.0709
 curvature:  -0.94 expect dE=-0.222E-02 dE for cont linesearch -0.257E-05
 trial: gam= 3.41012 g(F)=  0.238E-02 g(S)=  0.000E+00 ort = 0.558E-04 (trialstep = 0.413E-01)
 search vector abs. value=  0.159E-01
 bond charge predicted
       N       E                     dE             d eps       ncg     rms          rms(c)
DAV:   1    -0.128581584746E+03   -0.12916E-03   -0.33205E-03  1584   0.254E-01    0.315E-02
RMM:   2    -0.128585886754E+03   -0.43020E-02   -0.30217E-04  1008   0.500E-02    0.125E+00
RMM:   3    -0.128579612674E+03    0.62741E-02   -0.56246E-04   945   0.667E-02    0.775E-02
RMM:   4    -0.128581559313E+03   -0.19466E-02   -0.35134E-04   841   0.470E-02    0.390E-02
RMM:   5    -0.128581651472E+03   -0.92159E-04   -0.24935E-05   698   0.205E-02
  50 F= -.12858165E+03 E0= -.12856892E+03  d E =-.131115E-03  mag=    19.0709
 ZBRENT: can't locate minimum, use default step
 trial-energy change:   -0.000131  1 .order   -0.000096   -0.000106   -0.000086
 step:   0.1653(harm=  0.2129)  dis= 0.00240  next Energy=  -128.581794 (dE=-0.273E-03)
 bond charge predicted
       N       E                     dE             d eps       ncg     rms          rms(c)
DAV:   1    -0.128581785068E+03   -0.22575E-03   -0.29837E-02  1512   0.757E-01    0.106E-01
RMM:   2    -0.128648752929E+03   -0.66968E-01   -0.38223E-03  1371   0.157E-01    0.606E+00
RMM:   3    -0.128552851086E+03    0.95902E-01   -0.46492E-03  1270   0.203E-01    0.446E-01
RMM:   4    -0.128581086087E+03   -0.28235E-01   -0.27731E-03  1132   0.152E-01    0.324E-01
RMM:   5    -0.128582165594E+03   -0.10795E-02   -0.43895E-04   906   0.631E-02    0.377E-01
RMM:   6    -0.128581724410E+03    0.44118E-03   -0.80723E-05   811   0.374E-02    0.118E-01
RMM:   7    -0.128581933501E+03   -0.20909E-03   -0.37333E-05   717   0.219E-02    0.912E-02
RMM:   8    -0.128581934227E+03   -0.72553E-06   -0.10296E-05   597   0.111E-02
  51 F= -.12858193E+03 E0= -.12856899E+03  d E =-.413869E-03  mag=    19.0710
 curvature:  -0.61 expect dE=-0.373E-03 dE for cont linesearch -0.738E-04
 ZBRENT: increasing intervall
 opt :   0.4133  next Energy=  -128.582110 (dE=-0.589E-03)
 bond charge predicted
       N       E                     dE             d eps       ncg     rms          rms(c)
DAV:   1    -0.128581638619E+03    0.29488E-03   -0.11944E-01  1568   0.152E+00    0.168E-01
RMM:   2    -0.128689296367E+03   -0.10766E+00   -0.11202E-02  1453   0.279E-01    0.703E+00
RMM:   3    -0.128545083912E+03    0.14421E+00   -0.64229E-03  1308   0.243E-01    0.778E-01
RMM:   4    -0.128582686130E+03   -0.37602E-01   -0.41592E-03  1202   0.186E-01    0.547E-01
RMM:   5    -0.128581908490E+03    0.77764E-03   -0.66660E-04  1037   0.790E-02    0.218E-01
RMM:   6    -0.128582167575E+03   -0.25909E-03   -0.30346E-04   905   0.579E-02    0.550E-02
RMM:   7    -0.128582231629E+03   -0.64054E-04   -0.20362E-05   751   0.204E-02
  52 F= -.12858223E+03 E0= -.12856931E+03  d E =-.711271E-03  mag=    19.0712
 curvature:  -1.45 expect dE=-0.430E-03 dE for cont linesearch -0.340E-04
 ZBRENT: increasing intervall
 opt :   0.9092  next Energy=  -128.582149 (dE=-0.629E-03)
 bond charge predicted
       N       E                     dE             d eps       ncg     rms          rms(c)
DAV:   1    -0.128579843135E+03    0.23244E-02   -0.47781E-01  1568   0.303E+00    0.367E-01
RMM:   2    -0.128982014934E+03   -0.40217E+00   -0.49413E-02  1484   0.572E-01    0.809E+00
RMM:   3    -0.128542312083E+03    0.43970E+00   -0.17734E-02  1343   0.374E-01    0.146E+00
RMM:   4    -0.128583990482E+03   -0.41678E-01   -0.70756E-03  1272   0.248E-01    0.896E-01
RMM:   5    -0.128581890123E+03    0.21004E-02   -0.15295E-03  1140   0.120E-01    0.578E-01
RMM:   6    -0.128581724648E+03    0.16548E-03   -0.34187E-04   923   0.541E-02    0.186E-01
RMM:   7    -0.128582130638E+03   -0.40599E-03   -0.22921E-04   896   0.461E-02    0.302E-01
RMM:   8    -0.128582085993E+03    0.44645E-04   -0.17203E-04   847   0.456E-02
  53 F= -.12858209E+03 E0= -.12856872E+03  d E =-.565635E-03  mag=    19.0717
 curvature:   3.51 expect dE= 0.985E-02 dE for cont linesearch  0.641E-03
 ZBRENT: bracketing found
 ZBRENT: interpolating
 opt :   0.5442  next Energy=  -128.582272 (dE=-0.751E-03)
 bond charge predicted
       N       E                     dE             d eps       ncg     rms          rms(c)
DAV:   1    -0.128580939826E+03    0.11908E-02   -0.26044E-01  1600   0.223E+00    0.480E-01
RMM:   2    -0.129140887205E+03   -0.55995E+00   -0.68957E-02  1420   0.600E-01    0.710E+00
RMM:   3    -0.128559366490E+03    0.58152E+00   -0.44046E-02  1373   0.491E-01    0.774E-01
RMM:   4    -0.128580140376E+03   -0.20774E-01   -0.79066E-03  1293   0.258E-01    0.756E-01
RMM:   5    -0.128582024585E+03   -0.18842E-02   -0.13979E-03  1142   0.988E-02    0.693E-01
RMM:   6    -0.128582512208E+03   -0.48762E-03   -0.80923E-04  1053   0.845E-02    0.635E-01
RMM:   7    -0.128582047007E+03    0.46520E-03   -0.36145E-04   920   0.530E-02    0.422E-01
RMM:   8    -0.128581947179E+03    0.99828E-04   -0.12444E-04   825   0.324E-02
  54 F= -.12858195E+03 E0= -.12856902E+03  d E =-.426822E-03  mag=    19.0693
 curvature:  -0.22 expect dE=-0.101E-03 dE for cont linesearch -0.304E-06
 ZBRENT: interpolating
 opt :   0.5186  next Energy=  -128.581949 (dE=-0.429E-03)
 bond charge predicted
       N       E                     dE             d eps       ncg     rms          rms(c)
DAV:   1    -0.128582439644E+03   -0.39264E-03   -0.12654E-03  1568   0.167E-01    0.145E-01
RMM:   2    -0.128684825266E+03   -0.10239E+00   -0.53423E-03  1303   0.143E-01    0.337E+00
RMM:   3    -0.128572310245E+03    0.11252E+00   -0.62473E-03  1300   0.185E-01    0.271E-01
RMM:   4    -0.128581512280E+03   -0.92020E-02   -0.13964E-03  1077   0.103E-01    0.185E-01
RMM:   5    -0.128582341634E+03   -0.82935E-03   -0.21454E-04   870   0.454E-02    0.132E-01
RMM:   6    -0.128582499710E+03   -0.15808E-03   -0.48900E-05   779   0.267E-02    0.223E-01
RMM:   7    -0.128582415105E+03    0.84606E-04   -0.10023E-04   770   0.278E-02
  55 F= -.12858242E+03 E0= -.12856982E+03  d E =-.894747E-03  mag=    19.0690
 curvature:  -1.37 expect dE=-0.558E-03 dE for cont linesearch -0.117E-04
 ZBRENT: interpolating
 opt :   0.5368  next Energy=  -128.581948 (dE=-0.427E-03)
 bond charge predicted
       N       E                     dE             d eps       ncg     rms          rms(c)
DAV:   1    -0.128582485862E+03    0.13848E-04   -0.68708E-04  1504   0.115E-01    0.486E-02
RMM:   2    -0.128605778464E+03   -0.23293E-01   -0.58098E-04  1070   0.514E-02    0.388E+00
RMM:   3    -0.128571129725E+03    0.34649E-01   -0.36805E-03  1162   0.159E-01    0.304E-01
RMM:   4    -0.128582445622E+03   -0.11316E-01   -0.27011E-03  1073   0.130E-01    0.369E-01
RMM:   5    -0.128582430683E+03    0.14939E-04   -0.39620E-04   890   0.578E-02
  56 F= -.12858243E+03 E0= -.12857032E+03  d E =-.910326E-03  mag=    19.0689
 curvature:  -0.06 expect dE=-0.483E-04 dE for cont linesearch -0.240E-05
 ZBRENT: interpolating
 opt :   0.5430  next Energy=  -128.581947 (dE=-0.427E-03)
 bond charge predicted
       N       E                     dE             d eps       ncg     rms          rms(c)
DAV:   1    -0.128582441529E+03    0.40928E-05   -0.22812E-04  1076   0.567E-02    0.212E-02
RMM:   2    -0.128583632300E+03   -0.11908E-02   -0.53282E-05   767   0.256E-02    0.694E-01
RMM:   3    -0.128581775248E+03    0.18571E-02   -0.15670E-04   830   0.378E-02    0.133E-01
RMM:   4    -0.128582541216E+03   -0.76597E-03   -0.11998E-04   759   0.315E-02    0.137E-01
RMM:   5    -0.128582471883E+03    0.69333E-04   -0.33042E-05   663   0.186E-02
  57 F= -.12858247E+03 E0= -.12856984E+03  d E =-.951526E-03  mag=    19.0689
 curvature:   0.00 expect dE=-0.902E-06 dE for cont linesearch -0.831E-08
 ZBRENT: interpolating
 opt :   0.5437  next Energy=  -128.581947 (dE=-0.427E-03)
 bond charge predicted
       N       E                     dE             d eps       ncg     rms          rms(c)
DAV:   1    -0.128582493387E+03    0.47828E-04   -0.84493E-06   940   0.135E-02    0.181E-02
RMM:   2    -0.128585026858E+03   -0.25335E-02   -0.66126E-05   744   0.188E-02    0.996E-01
RMM:   3    -0.128581124549E+03    0.39023E-02   -0.35609E-04   877   0.527E-02    0.735E-02
RMM:   4    -0.128582432378E+03   -0.13078E-02   -0.23486E-04   777   0.358E-02    0.521E-02
RMM:   5    -0.128582503813E+03   -0.71435E-04   -0.25192E-05   689   0.205E-02
  58 F= -.12858250E+03 E0= -.12856985E+03  d E =-.983456E-03  mag=    19.0688
 curvature:  -0.01 expect dE=-0.366E-05 dE for cont linesearch -0.302E-07
 ZBRENT: interpolating
 opt :   0.5440  next Energy=  -128.581947 (dE=-0.427E-03)
 bond charge predicted
       N       E                     dE             d eps       ncg     rms          rms(c)
DAV:   1    -0.128582506681E+03   -0.74303E-04   -0.71935E-06   876   0.110E-02    0.295E-02
RMM:   2    -0.128589293234E+03   -0.67866E-02   -0.18403E-04   827   0.282E-02    0.152E+00
RMM:   3    -0.128579692519E+03    0.96007E-02   -0.82000E-04   993   0.772E-02    0.108E-01
RMM:   4    -0.128582296574E+03   -0.26041E-02   -0.46505E-04   865   0.534E-02    0.113E-01
RMM:   5    -0.128582506955E+03   -0.21038E-03   -0.59321E-05   739   0.293E-02    0.555E-02
RMM:   6    -0.128582497072E+03    0.98828E-05   -0.88979E-06   550   0.114E-02
  59 F= -.12858250E+03 E0= -.12856983E+03  d E =-.976715E-03  mag=    19.0687
 curvature:   0.00 expect dE=-0.161E-05 dE for cont linesearch -0.123E-07
 ZBRENT: interpolating
 opt :   0.5441  next Energy=  -128.581947 (dE=-0.427E-03)
 bond charge predicted
       N       E                     dE             d eps       ncg     rms          rms(c)
DAV:   1    -0.128582495939E+03    0.11016E-04   -0.84468E-06   880   0.101E-02    0.628E-03
RMM:   2    -0.128582781267E+03   -0.28533E-03   -0.83279E-06   475   0.823E-03    0.357E-01
RMM:   3    -0.128582278692E+03    0.50258E-03   -0.38664E-05   659   0.211E-02    0.251E-02
RMM:   4    -0.128582481794E+03   -0.20310E-03   -0.22562E-05   587   0.141E-02    0.177E-02
RMM:   5    -0.128582503988E+03   -0.22193E-04   -0.38793E-06   445   0.801E-03
  60 F= -.12858250E+03 E0= -.12856990E+03  d E =-.983630E-03  mag=    19.0686
 curvature:   0.00 expect dE=-0.747E-06 dE for cont linesearch -0.962E-08
 ZBRENT: interpolating
 opt :   0.5442  next Energy=  -128.581947 (dE=-0.427E-03)
 bond charge predicted
       N       E                     dE             d eps       ncg     rms          rms(c)
DAV:   1    -0.128582508117E+03   -0.26322E-04   -0.38676E-06   860   0.736E-03    0.145E-03
RMM:   2    -0.128582520342E+03   -0.12225E-04   -0.13009E-07   140   0.304E-03
  61 F= -.12858252E+03 E0= -.12857018E+03  d E =-.999985E-03  mag=    19.0686
 curvature:   0.00 expect dE=-0.199E-06 dE for cont linesearch -0.622E-08
 ZBRENT: interpolating
 opt :   0.5442  next Energy=  -128.581947 (dE=-0.427E-03)
 bond charge predicted
       N       E                     dE             d eps       ncg     rms          rms(c)
DAV:   1    -0.128582483595E+03    0.24522E-04   -0.36230E-05   848   0.133E-02    0.767E-03
RMM:   2    -0.128582669946E+03   -0.18635E-03   -0.73887E-06   422   0.718E-03    0.289E-01
RMM:   3    -0.128582409153E+03    0.26079E-03   -0.85596E-05   659   0.232E-02    0.499E-02
RMM:   4    -0.128582505508E+03   -0.96354E-04   -0.56419E-05   620   0.172E-02
  62 F= -.12858251E+03 E0= -.12856999E+03  d E =-.985150E-03  mag=    19.0686
 curvature:   0.00 expect dE=-0.107E-07 dE for cont linesearch -0.213E-09
 ZBRENT: interpolating
 opt :   0.5442  next Energy=  -128.581947 (dE=-0.427E-03)
 bond charge predicted
       N       E                     dE             d eps       ncg     rms          rms(c)
DAV:   1    -0.128582507460E+03   -0.98307E-04   -0.12845E-05   824   0.122E-02    0.203E-02
RMM:   2    -0.128585774659E+03   -0.32672E-02   -0.78666E-05   754   0.194E-02    0.111E+00
RMM:   3    -0.128580868557E+03    0.49061E-02   -0.44157E-04   887   0.574E-02    0.749E-02
RMM:   4    -0.128582417458E+03   -0.15489E-02   -0.28686E-04   806   0.400E-02    0.588E-02
RMM:   5    -0.128582507948E+03   -0.90491E-04   -0.23887E-05   673   0.189E-02
  63 F= -.12858251E+03 E0= -.12856976E+03  d E =-.987591E-03  mag=    19.0686
 curvature:   0.00 expect dE=-0.562E-08 dE for cont linesearch -0.214E-10
 ZBRENT: interpolating
 opt :   0.5442  next Energy=  -128.581947 (dE=-0.427E-03)
 bond charge predicted
       N       E                     dE             d eps       ncg     rms          rms(c)
DAV:   1    -0.128582493650E+03   -0.76193E-04   -0.24324E-05   864   0.164E-02    0.306E-02
RMM:   2    -0.128589729091E+03   -0.72354E-02   -0.20482E-04   839   0.295E-02    0.156E+00
RMM:   3    -0.128579545048E+03    0.10184E-01   -0.85767E-04   993   0.787E-02    0.115E-01
RMM:   4    -0.128582279134E+03   -0.27341E-02   -0.48204E-04   868   0.542E-02    0.102E-01
RMM:   5    -0.128582502059E+03   -0.22292E-03   -0.62811E-05   739   0.294E-02    0.534E-02
RMM:   6    -0.128582502266E+03   -0.20688E-06   -0.12485E-05   558   0.119E-02
  64 F= -.12858250E+03 E0= -.12856984E+03  d E =-.981909E-03  mag=    19.0685
 curvature:   0.00 expect dE=-0.156E-07 dE for cont linesearch -0.128E-09
 ZBRENT: interpolating
 opt :   0.5442  next Energy=  -128.581947 (dE=-0.427E-03)
 bond charge predicted
       N       E                     dE             d eps       ncg     rms          rms(c)
DAV:   1    -0.128582500273E+03    0.17861E-05   -0.63372E-06   868   0.935E-03    0.750E-03
RMM:   2    -0.128582943581E+03   -0.44331E-03   -0.11100E-05   517   0.886E-03    0.446E-01
RMM:   3    -0.128582172237E+03    0.77134E-03   -0.56441E-05   691   0.248E-02    0.287E-02
RMM:   4    -0.128582479905E+03   -0.30767E-03   -0.34485E-05   638   0.167E-02    0.273E-02
RMM:   5    -0.128582501295E+03   -0.21390E-04   -0.44386E-06   466   0.878E-03
  65 F= -.12858250E+03 E0= -.12856992E+03  d E =-.980937E-03  mag=    19.0685
 curvature:   0.00 expect dE=-0.308E-08 dE for cont linesearch -0.456E-10
 ZBRENT: interpolating
 opt :   0.5442  next Energy=  -128.581947 (dE=-0.427E-03)
 bond charge predicted
       N       E                     dE             d eps       ncg     rms          rms(c)
DAV:   1    -0.128582508520E+03   -0.28615E-04   -0.31932E-06   848   0.733E-03    0.326E-03
RMM:   2    -0.128582605044E+03   -0.96525E-04   -0.74492E-07   214   0.412E-03
  66 F= -.12858261E+03 E0= -.12857068E+03  d E =-.108469E-02  mag=    19.0685
 curvature:   0.00 expect dE=-0.136E-08 dE for cont linesearch -0.638E-10
 ZBRENT: interpolating
 opt :   0.5442  next Energy=  -128.581947 (dE=-0.427E-03)
 bond charge predicted
       N       E                     dE             d eps       ncg     rms          rms(c)
DAV:   1    -0.128582439476E+03    0.69044E-04   -0.19734E-04   896   0.322E-02    0.301E-02
RMM:   2    -0.128590512884E+03   -0.80734E-02   -0.17952E-04   820   0.290E-02    0.224E+00
RMM:   3    -0.128578775333E+03    0.11738E-01   -0.13528E-03  1045   0.103E-01    0.153E-01
RMM:   4    -0.128582359903E+03   -0.35846E-02   -0.74996E-04   961   0.745E-02    0.172E-01
RMM:   5    -0.128582496809E+03   -0.13691E-03   -0.21816E-04   817   0.421E-02    0.563E-02
RMM:   6    -0.128582489962E+03    0.68467E-05   -0.86184E-06   582   0.129E-02
  67 F= -.12858249E+03 E0= -.12856985E+03  d E =-.969605E-03  mag=    19.0685
 curvature:   0.00 expect dE=-0.927E-11 dE for cont linesearch -0.105E-12
 ZBRENT:  can not reach accuracy
 opt :   0.0000  next Energy=     0.000000 (dE= 0.129E+03)
 bond charge predicted
       N       E                     dE             d eps       ncg     rms          rms(c)
DAV:   1    -0.128579048809E+03    0.34480E-02   -0.57631E-01  1568   0.332E+00    0.518E-01
RMM:   2    -0.129100772468E+03   -0.52172E+00   -0.85910E-02  1455   0.731E-01    0.711E+00
RMM:   3    -0.128561267248E+03    0.53951E+00   -0.43280E-02  1377   0.506E-01    0.106E+00
RMM:   4    -0.128580177895E+03   -0.18911E-01   -0.95406E-03  1296   0.277E-01    0.614E-01
RMM:   5    -0.128583383484E+03   -0.32056E-02   -0.19661E-03  1215   0.115E-01    0.106E+00
RMM:   6    -0.128581154791E+03    0.22287E-02   -0.14577E-03  1131   0.112E-01    0.607E-01
RMM:   7    -0.128581699289E+03   -0.54450E-03   -0.66239E-04  1001   0.719E-02    0.556E-01
RMM:   8    -0.128580758836E+03    0.94045E-03   -0.23307E-04   902   0.438E-02    0.537E-02
RMM:   9    -0.128581431653E+03   -0.67282E-03   -0.16421E-04   837   0.344E-02    0.149E-01
RMM:  10    -0.128581438709E+03   -0.70554E-05   -0.59788E-05   752   0.232E-02
  68 F= -.12858144E+03 E0= -.12856864E+03  d E =0.816487E-04  mag=    19.0669
 curvature:   0.00 expect dE= 0.236-306 dE for cont linesearch  0.452-307
 ZBRENT: fatal error in bracketing
     please rerun with smaller EDIFF, or copy CONTCAR
     to POSCAR and continue
