       N       E                     dE             d eps       ncg     rms          rms(c)
DAV:   1     0.141344063544E+04    0.14134E+04   -0.73417E+04  1568   0.106E+03
DAV:   2    -0.360315764857E+01   -0.14170E+04   -0.13493E+04  1500   0.372E+02
DAV:   3    -0.122758949786E+03   -0.11916E+03   -0.11701E+03  1644   0.118E+02
DAV:   4    -0.128130645795E+03   -0.53717E+01   -0.53481E+01  2128   0.232E+01
DAV:   5    -0.128559013893E+03   -0.42837E+00   -0.42810E+00  2392   0.371E+00    0.112E-01
RMM:   6    -0.128632229009E+03   -0.73215E-01   -0.57198E-02  1748   0.646E-01    0.590E+00
RMM:   7    -0.128535877154E+03    0.96352E-01   -0.14463E-02  1815   0.327E-01    0.463E-01
RMM:   8    -0.128564838242E+03   -0.28961E-01   -0.77660E-03  1626   0.210E-01    0.441E-01
RMM:   9    -0.128564969696E+03   -0.13145E-03   -0.23803E-03  1501   0.105E-01    0.211E-01
RMM:  10    -0.128565238860E+03   -0.26916E-03   -0.12617E-03  1281   0.760E-02    0.133E-01
RMM:  11    -0.128565314297E+03   -0.75437E-04   -0.56367E-04  1110   0.465E-02
   1 F= -.12856531E+03 E0= -.12855003E+03  d E =-.128565E+03  mag=    19.0186
       N       E                     dE             d eps       ncg     rms          rms(c)
DAV:   1    -0.128564285266E+03    0.95359E-03   -0.39870E-01  1704   0.381E+00    0.737E-01
RMM:   2    -0.129812994601E+03   -0.12487E+01   -0.15020E-01  1484   0.941E-01    0.904E+00
RMM:   3    -0.128535781128E+03    0.12772E+01   -0.82177E-02  1402   0.708E-01    0.159E+00
RMM:   4    -0.128567618005E+03   -0.31837E-01   -0.15308E-02  1359   0.408E-01    0.428E-01
RMM:   5    -0.128570661903E+03   -0.30439E-02   -0.32834E-03  1305   0.170E-01    0.158E+00
RMM:   6    -0.128567090747E+03    0.35712E-02   -0.14245E-03  1125   0.115E-01    0.779E-01
RMM:   7    -0.128570573189E+03   -0.34824E-02   -0.11817E-03  1153   0.921E-02    0.164E+00
RMM:   8    -0.128566080057E+03    0.44931E-02   -0.68620E-04  1046   0.768E-02    0.394E-01
RMM:   9    -0.128568129318E+03   -0.20493E-02   -0.42353E-04   986   0.603E-02    0.326E-01
RMM:  10    -0.128568278873E+03   -0.14955E-03   -0.22861E-04   896   0.428E-02    0.378E-02
RMM:  11    -0.128568504673E+03   -0.22580E-03   -0.14909E-04   836   0.359E-02    0.145E-01
RMM:  12    -0.128568550316E+03   -0.45643E-04   -0.29440E-05   762   0.229E-02
   2 F= -.12856855E+03 E0= -.12855408E+03  d E =-.323602E-02  mag=    19.0269
       N       E                     dE             d eps       ncg     rms          rms(c)
DAV:   1    -0.128536020792E+03    0.32484E-01   -0.35962E+00  1608   0.114E+01    0.197E+00
RMM:   2    -0.132833983923E+03   -0.42980E+01   -0.10620E+00  1517   0.258E+00    0.138E+01
RMM:   3    -0.128950933539E+03    0.38831E+01   -0.44315E-01  1411   0.175E+00    0.874E+00
RMM:   4    -0.128519122207E+03    0.43181E+00   -0.14272E-01  1428   0.106E+00    0.153E+00
RMM:   5    -0.128603759165E+03   -0.84637E-01   -0.13652E-02  1394   0.424E-01    0.498E+00
RMM:   6    -0.128558320852E+03    0.45438E-01   -0.41846E-03  1298   0.200E-01    0.295E+00
RMM:   7    -0.128560235410E+03   -0.19146E-02   -0.36987E-03  1309   0.151E-01    0.171E+00
RMM:   8    -0.128570338773E+03   -0.10103E-01   -0.29059E-03  1223   0.144E-01    0.227E+00
RMM:   9    -0.128564523858E+03    0.58149E-02   -0.11593E-03  1153   0.100E-01    0.107E+00
RMM:  10    -0.128566944623E+03   -0.24208E-02   -0.17352E-03  1169   0.108E-01    0.673E-01
RMM:  11    -0.128567591678E+03   -0.64706E-03   -0.53710E-04  1050   0.700E-02    0.355E-01
RMM:  12    -0.128568730786E+03   -0.11391E-02   -0.45302E-04   930   0.656E-02    0.228E-01
RMM:  13    -0.128569040552E+03   -0.30977E-03   -0.78262E-05   821   0.343E-02    0.273E-01
RMM:  14    -0.128569344400E+03   -0.30385E-03   -0.81619E-05   810   0.293E-02    0.135E-01
RMM:  15    -0.128569438659E+03   -0.94259E-04   -0.23395E-05   762   0.190E-02
   3 F= -.12856944E+03 E0= -.12855606E+03  d E =-.412436E-02  mag=    19.0483
       N       E                     dE             d eps       ncg     rms          rms(c)
DAV:   1    -0.128567708382E+03    0.16360E-02   -0.28751E-01  1672   0.322E+00    0.681E-01
RMM:   2    -0.129394901697E+03   -0.82719E+00   -0.11706E-01  1463   0.832E-01    0.749E+00
RMM:   3    -0.128552033893E+03    0.84287E+00   -0.69088E-02  1382   0.619E-01    0.132E+00
RMM:   4    -0.128568764741E+03   -0.16731E-01   -0.11910E-02  1321   0.328E-01    0.683E-01
RMM:   5    -0.128574756177E+03   -0.59914E-02   -0.30030E-03  1261   0.134E-01    0.170E+00
RMM:   6    -0.128570504839E+03    0.42513E-02   -0.21321E-03  1167   0.137E-01    0.931E-01
RMM:   7    -0.128573444196E+03   -0.29394E-02   -0.10054E-03  1034   0.881E-02    0.115E+00
RMM:   8    -0.128569751917E+03    0.36923E-02   -0.31003E-04   918   0.533E-02    0.489E-01
RMM:   9    -0.128570833291E+03   -0.10814E-02   -0.26697E-04   921   0.471E-02    0.992E-02
RMM:  10    -0.128571864949E+03   -0.10317E-02   -0.20930E-04   849   0.411E-02    0.153E-01
RMM:  11    -0.128571886166E+03   -0.21217E-04   -0.31419E-05   738   0.220E-02
   4 F= -.12857189E+03 E0= -.12855797E+03  d E =-.657187E-02  mag=    19.0463
       N       E                     dE             d eps       ncg     rms          rms(c)
DAV:   1    -0.128568671855E+03    0.31931E-02   -0.44395E-01  1616   0.414E+00    0.588E-01
RMM:   2    -0.129301349254E+03   -0.73268E+00   -0.10077E-01  1548   0.865E-01    0.818E+00
RMM:   3    -0.128543309849E+03    0.75804E+00   -0.40843E-02  1383   0.520E-01    0.221E+00
RMM:   4    -0.128573241716E+03   -0.29932E-01   -0.90006E-03  1333   0.313E-01    0.697E-01
RMM:   5    -0.128576955666E+03   -0.37139E-02   -0.26895E-03  1252   0.157E-01    0.153E+00
RMM:   6    -0.128571733703E+03    0.52220E-02   -0.13082E-03  1132   0.100E-01    0.629E-01
RMM:   7    -0.128573112020E+03   -0.13783E-02   -0.99522E-04  1047   0.100E-01    0.327E-01
RMM:   8    -0.128573146411E+03   -0.34391E-04   -0.16520E-04   847   0.429E-02
   5 F= -.12857315E+03 E0= -.12855794E+03  d E =-.126024E-02  mag=    19.0516
       N       E                     dE             d eps       ncg     rms          rms(c)
DAV:   1    -0.128573023569E+03    0.88451E-04   -0.31226E-03  1552   0.345E-01    0.356E-01
RMM:   2    -0.128953224152E+03   -0.38020E+00   -0.29475E-02  1332   0.332E-01    0.707E+00
RMM:   3    -0.128545848839E+03    0.40738E+00   -0.30125E-02  1358   0.397E-01    0.617E-01
RMM:   4    -0.128572183115E+03   -0.26334E-01   -0.72460E-03  1254   0.227E-01    0.951E-01
RMM:   5    -0.128571374332E+03    0.80878E-03   -0.14580E-03  1139   0.990E-02    0.134E-01
RMM:   6    -0.128573148127E+03   -0.17738E-02   -0.55968E-04  1006   0.722E-02    0.330E-01
RMM:   7    -0.128573096464E+03    0.51663E-04   -0.11759E-04   828   0.339E-02
   6 F= -.12857310E+03 E0= -.12855839E+03  d E =-.121030E-02  mag=    19.0501
       N       E                     dE             d eps       ncg     rms          rms(c)
DAV:   1    -0.128573128508E+03    0.19619E-04   -0.10690E-01  1648   0.138E+00    0.393E-01
RMM:   2    -0.129060137032E+03   -0.48701E+00   -0.44767E-02  1384   0.466E-01    0.718E+00
RMM:   3    -0.128550957565E+03    0.50918E+00   -0.33976E-02  1365   0.436E-01    0.152E+00
RMM:   4    -0.128570636629E+03   -0.19679E-01   -0.66247E-03  1277   0.227E-01    0.137E+00
RMM:   5    -0.128570098642E+03    0.53799E-03   -0.12065E-03  1132   0.936E-02    0.585E-01
RMM:   6    -0.128572908903E+03   -0.28103E-02   -0.85745E-04  1063   0.810E-02    0.502E-01
RMM:   7    -0.128573297841E+03   -0.38894E-03   -0.31293E-04   947   0.512E-02    0.630E-01
RMM:   8    -0.128573542238E+03   -0.24440E-03   -0.45062E-04   944   0.647E-02    0.176E-01
RMM:   9    -0.128573679645E+03   -0.13741E-03   -0.10285E-04   819   0.299E-02    0.939E-02
RMM:  10    -0.128573900243E+03   -0.22060E-03   -0.61365E-05   762   0.278E-02    0.200E-01
RMM:  11    -0.128573886596E+03    0.13647E-04   -0.32163E-05   682   0.178E-02
   7 F= -.12857389E+03 E0= -.12855940E+03  d E =-.790132E-03  mag=    19.0489
       N       E                     dE             d eps       ncg     rms          rms(c)
DAV:   1    -0.128573875548E+03    0.24695E-04   -0.24510E-04  1296   0.703E-02    0.180E-01
RMM:   2    -0.128712808061E+03   -0.13893E+00   -0.76613E-03  1310   0.166E-01    0.362E+00
RMM:   3    -0.128562798193E+03    0.15001E+00   -0.84182E-03  1320   0.211E-01    0.336E-01
RMM:   4    -0.128572635071E+03   -0.98369E-02   -0.15314E-03  1115   0.110E-01    0.123E-01
RMM:   5    -0.128574002140E+03   -0.13671E-02   -0.35910E-04   900   0.563E-02    0.165E-01
RMM:   6    -0.128574089519E+03   -0.87379E-04   -0.53025E-05   784   0.285E-02
   8 F= -.12857409E+03 E0= -.12855953E+03  d E =-.993055E-03  mag=    19.0475
       N       E                     dE             d eps       ncg     rms          rms(c)
DAV:   1    -0.128574358248E+03   -0.35611E-03   -0.24783E-02  1576   0.659E-01    0.100E-01
RMM:   2    -0.128623376259E+03   -0.49018E-01   -0.28351E-03  1385   0.143E-01    0.542E+00
RMM:   3    -0.128550497534E+03    0.72879E-01   -0.38167E-03  1254   0.184E-01    0.666E-01
RMM:   4    -0.128574604450E+03   -0.24107E-01   -0.29956E-03  1159   0.160E-01    0.364E-01
RMM:   5    -0.128574449630E+03    0.15482E-03   -0.23158E-04   899   0.579E-02    0.190E-01
RMM:   6    -0.128574497894E+03   -0.48265E-04   -0.43099E-05   765   0.260E-02
   9 F= -.12857450E+03 E0= -.12856058E+03  d E =-.408376E-03  mag=    19.0460
       N       E                     dE             d eps       ncg     rms          rms(c)
DAV:   1    -0.128574525748E+03   -0.76118E-04   -0.21911E-01  1536   0.197E+00    0.235E-01
RMM:   2    -0.128718874563E+03   -0.14435E+00   -0.18022E-02  1491   0.379E-01    0.740E+00
RMM:   3    -0.128532813129E+03    0.18606E+00   -0.72214E-03  1330   0.272E-01    0.743E-01
RMM:   4    -0.128576843595E+03   -0.44030E-01   -0.48990E-03  1242   0.204E-01    0.101E+00
RMM:   5    -0.128574230821E+03    0.26128E-02   -0.11165E-03  1111   0.101E-01    0.258E-01
RMM:   6    -0.128575329763E+03   -0.10989E-02   -0.29395E-04   924   0.593E-02    0.179E-01
RMM:   7    -0.128575567317E+03   -0.23755E-03   -0.20714E-04   868   0.489E-02    0.126E-01
RMM:   8    -0.128575646749E+03   -0.79432E-04   -0.34341E-05   765   0.231E-02
  10 F= -.12857565E+03 E0= -.12856115E+03  d E =-.155723E-02  mag=    19.0439
       N       E                     dE             d eps       ncg     rms          rms(c)
DAV:   1    -0.128575530179E+03    0.37138E-04   -0.39388E-03  1560   0.264E-01    0.155E-01
RMM:   2    -0.128784937981E+03   -0.20941E+00   -0.57471E-03  1327   0.152E-01    0.761E+00
RMM:   3    -0.128530129483E+03    0.25481E+00   -0.83917E-03  1316   0.248E-01    0.448E-01
RMM:   4    -0.128574342574E+03   -0.44213E-01   -0.38624E-03  1203   0.182E-01    0.458E-01
RMM:   5    -0.128575541885E+03   -0.11993E-02   -0.61674E-04  1016   0.741E-02    0.432E-01
RMM:   6    -0.128575480935E+03    0.60950E-04   -0.32163E-04   886   0.613E-02
  11 F= -.12857548E+03 E0= -.12856210E+03  d E =-.139142E-02  mag=    19.0429
       N       E                     dE             d eps       ncg     rms          rms(c)
DAV:   1    -0.128575346100E+03    0.19578E-03   -0.14242E-02  1600   0.507E-01    0.968E-02
RMM:   2    -0.128614255659E+03   -0.38910E-01   -0.24038E-03  1379   0.129E-01    0.319E+00
RMM:   3    -0.128565294099E+03    0.48962E-01   -0.31082E-03  1231   0.154E-01    0.246E-01
RMM:   4    -0.128575605750E+03   -0.10312E-01   -0.15890E-03  1090   0.108E-01    0.478E-01
RMM:   5    -0.128575498436E+03    0.10731E-03   -0.31461E-04   918   0.635E-02    0.184E-01
RMM:   6    -0.128575537710E+03   -0.39274E-04   -0.41847E-05   759   0.263E-02
  12 F= -.12857554E+03 E0= -.12856196E+03  d E =-.144819E-02  mag=    19.0415
       N       E                     dE             d eps       ncg     rms          rms(c)
DAV:   1    -0.128575765135E+03   -0.26670E-03   -0.39942E-02  1568   0.109E+00    0.441E-01
RMM:   2    -0.129411873483E+03   -0.83611E+00   -0.48943E-02  1366   0.449E-01    0.843E+00
RMM:   3    -0.128528245262E+03    0.88363E+00   -0.42013E-02  1371   0.466E-01    0.959E-01
RMM:   4    -0.128573982617E+03   -0.45737E-01   -0.63661E-03  1296   0.273E-01    0.608E-01
RMM:   5    -0.128576188266E+03   -0.22056E-02   -0.15475E-03  1222   0.118E-01    0.717E-01
RMM:   6    -0.128575432944E+03    0.75532E-03   -0.60157E-04  1039   0.749E-02    0.252E-01
RMM:   7    -0.128575746951E+03   -0.31401E-03   -0.38832E-04   920   0.577E-02    0.448E-02
RMM:   8    -0.128575841182E+03   -0.94231E-04   -0.43446E-05   777   0.282E-02
  13 F= -.12857584E+03 E0= -.12856182E+03  d E =-.303472E-03  mag=    19.0416
       N       E                     dE             d eps       ncg     rms          rms(c)
DAV:   1    -0.128575858726E+03   -0.11178E-03   -0.22348E-04  1228   0.883E-02    0.872E-02
RMM:   2    -0.128655041501E+03   -0.79183E-01   -0.16536E-03  1215   0.821E-02    0.630E+00
RMM:   3    -0.128542421893E+03    0.11262E+00   -0.45812E-03  1279   0.197E-01    0.378E-01
RMM:   4    -0.128575991371E+03   -0.33569E-01   -0.29467E-03  1153   0.154E-01    0.818E-01
RMM:   5    -0.128575636838E+03    0.35453E-03   -0.92906E-04  1037   0.989E-02    0.399E-01
RMM:   6    -0.128575426541E+03    0.21030E-03   -0.55619E-05   773   0.321E-02    0.243E-01
RMM:   7    -0.128575696589E+03   -0.27005E-03   -0.41926E-05   696   0.188E-02    0.129E-01
RMM:   8    -0.128575905930E+03   -0.20934E-03   -0.38198E-05   701   0.229E-02    0.742E-02
RMM:   9    -0.128575884469E+03    0.21460E-04   -0.25005E-06   450   0.788E-03
  14 F= -.12857588E+03 E0= -.12856193E+03  d E =-.346760E-03  mag=    19.0411
       N       E                     dE             d eps       ncg     rms          rms(c)
DAV:   1    -0.128575713693E+03    0.19224E-03   -0.32675E-02  1544   0.121E+00    0.151E-01
RMM:   2    -0.128611444333E+03   -0.35731E-01   -0.70333E-03  1441   0.215E-01    0.473E+00
RMM:   3    -0.128558285481E+03    0.53159E-01   -0.38022E-03  1240   0.182E-01    0.846E-01
RMM:   4    -0.128576846869E+03   -0.18561E-01   -0.25751E-03  1129   0.150E-01    0.521E-01
RMM:   5    -0.128576600481E+03    0.24639E-03   -0.20438E-04   867   0.503E-02    0.606E-01
RMM:   6    -0.128575483082E+03    0.11174E-02   -0.85709E-05   807   0.354E-02    0.114E-01
RMM:   7    -0.128576127024E+03   -0.64394E-03   -0.76034E-05   745   0.243E-02    0.443E-02
RMM:   8    -0.128576329667E+03   -0.20264E-03   -0.34678E-05   696   0.196E-02    0.222E-02
RMM:   9    -0.128576342488E+03   -0.12820E-04   -0.67760E-06   594   0.112E-02
  15 F= -.12857634E+03 E0= -.12856256E+03  d E =-.458019E-03  mag=    19.0412
       N       E                     dE             d eps       ncg     rms          rms(c)
DAV:   1    -0.128571695402E+03    0.46343E-02   -0.29696E-01  1568   0.364E+00    0.437E-01
RMM:   2    -0.128722882601E+03   -0.15119E+00   -0.55960E-02  1547   0.619E-01    0.746E+00
RMM:   3    -0.128553071194E+03    0.16981E+00   -0.11123E-02  1341   0.322E-01    0.261E+00
RMM:   4    -0.128577852061E+03   -0.24781E-01   -0.72316E-03  1307   0.270E-01    0.817E-01
RMM:   5    -0.128577816581E+03    0.35480E-04   -0.27122E-03  1193   0.138E-01    0.861E-01
RMM:   6    -0.128576697838E+03    0.11187E-02   -0.10411E-03  1091   0.100E-01    0.684E-01
RMM:   7    -0.128575800263E+03    0.89758E-03   -0.13294E-04   829   0.407E-02    0.225E-01
RMM:   8    -0.128576799341E+03   -0.99908E-03   -0.18941E-04   850   0.392E-02    0.335E-01
RMM:   9    -0.128576825404E+03   -0.26063E-04   -0.14068E-04   835   0.390E-02
  16 F= -.12857683E+03 E0= -.12856329E+03  d E =-.940935E-03  mag=    19.0438
       N       E                     dE             d eps       ncg     rms          rms(c)
DAV:   1    -0.128576173005E+03    0.62634E-03   -0.39567E-02  1612   0.135E+00    0.173E-01
RMM:   2    -0.128636438199E+03   -0.60265E-01   -0.89539E-03  1483   0.248E-01    0.577E+00
RMM:   3    -0.128549359215E+03    0.87079E-01   -0.45710E-03  1283   0.207E-01    0.882E-01
RMM:   4    -0.128577730879E+03   -0.28372E-01   -0.29902E-03  1170   0.167E-01    0.660E-01
RMM:   5    -0.128576476382E+03    0.12545E-02   -0.33692E-04   928   0.654E-02    0.281E-01
RMM:   6    -0.128576673818E+03   -0.19744E-03   -0.83594E-05   774   0.281E-02    0.757E-02
RMM:   7    -0.128576944142E+03   -0.27032E-03   -0.37162E-05   721   0.226E-02    0.832E-02
RMM:   8    -0.128576978462E+03   -0.34320E-04   -0.10668E-05   653   0.126E-02
  17 F= -.12857698E+03 E0= -.12856319E+03  d E =-.109399E-02  mag=    19.0458
       N       E                     dE             d eps       ncg     rms          rms(c)
DAV:   1    -0.128577121873E+03   -0.17773E-03   -0.35262E-02  1532   0.999E-01    0.220E-01
RMM:   2    -0.128860682320E+03   -0.28356E+00   -0.11445E-02  1416   0.249E-01    0.776E+00
RMM:   3    -0.128530713352E+03    0.32997E+00   -0.10844E-02  1321   0.287E-01    0.692E-01
RMM:   4    -0.128577034535E+03   -0.46321E-01   -0.45097E-03  1223   0.203E-01    0.601E-01
RMM:   5    -0.128576734841E+03    0.29969E-03   -0.65393E-04  1036   0.785E-02    0.921E-02
RMM:   6    -0.128577365071E+03   -0.63023E-03   -0.26063E-04   886   0.556E-02    0.247E-01
RMM:   7    -0.128577198664E+03    0.16641E-03   -0.36773E-05   713   0.196E-02    0.918E-02
RMM:   8    -0.128577266139E+03   -0.67475E-04   -0.23752E-05   710   0.155E-02
  18 F= -.12857727E+03 E0= -.12856373E+03  d E =-.287677E-03  mag=    19.0482
       N       E                     dE             d eps       ncg     rms          rms(c)
DAV:   1    -0.128575865145E+03    0.13335E-02   -0.31646E-01  1556   0.299E+00    0.541E-01
RMM:   2    -0.129395834451E+03   -0.81997E+00   -0.71000E-02  1486   0.651E-01    0.864E+00
RMM:   3    -0.128534657746E+03    0.86118E+00   -0.43424E-02  1383   0.524E-01    0.168E+00
RMM:   4    -0.128577972488E+03   -0.43315E-01   -0.88943E-03  1316   0.318E-01    0.446E-01
RMM:   5    -0.128581432385E+03   -0.34599E-02   -0.17450E-03  1249   0.136E-01    0.181E+00
RMM:   6    -0.128579161490E+03    0.22709E-02   -0.10429E-03  1049   0.103E-01    0.168E+00
RMM:   7    -0.128574684912E+03    0.44766E-02   -0.11819E-03  1119   0.821E-02    0.454E-01
RMM:   8    -0.128577437507E+03   -0.27526E-02   -0.10363E-03  1065   0.103E-01    0.169E-01
RMM:   9    -0.128577639222E+03   -0.20171E-03   -0.10469E-04   816   0.396E-02    0.463E-01
RMM:  10    -0.128577305336E+03    0.33389E-03   -0.19937E-04   854   0.386E-02    0.114E-01
RMM:  11    -0.128577529996E+03   -0.22466E-03   -0.56858E-05   754   0.213E-02    0.168E-01
RMM:  12    -0.128577563726E+03   -0.33730E-04   -0.16991E-05   679   0.141E-02
  19 F= -.12857756E+03 E0= -.12856398E+03  d E =-.585264E-03  mag=    19.0550
       N       E                     dE             d eps       ncg     rms          rms(c)
DAV:   1    -0.128577545817E+03   -0.15821E-04   -0.30811E-02  1624   0.932E-01    0.141E-01
RMM:   2    -0.128671727659E+03   -0.94182E-01   -0.46889E-03  1443   0.182E-01    0.671E+00
RMM:   3    -0.128541641567E+03    0.13009E+00   -0.57411E-03  1304   0.224E-01    0.944E-01
RMM:   4    -0.128578331323E+03   -0.36690E-01   -0.41665E-03  1201   0.188E-01    0.471E-01
RMM:   5    -0.128577526898E+03    0.80443E-03   -0.57180E-04  1022   0.762E-02    0.128E-01
RMM:   6    -0.128577795211E+03   -0.26831E-03   -0.15177E-04   847   0.459E-02    0.192E-02
RMM:   7    -0.128577867027E+03   -0.71816E-04   -0.14237E-05   715   0.173E-02
  20 F= -.12857787E+03 E0= -.12856436E+03  d E =-.888565E-03  mag=    19.0559
       N       E                     dE             d eps       ncg     rms          rms(c)
DAV:   1    -0.128577584609E+03    0.21060E-03   -0.85169E-02  1616   0.166E+00    0.209E-01
RMM:   2    -0.128613981251E+03   -0.36397E-01   -0.94158E-03  1463   0.260E-01    0.483E+00
RMM:   3    -0.128565667305E+03    0.48314E-01   -0.42299E-03  1271   0.190E-01    0.158E+00
RMM:   4    -0.128578914449E+03   -0.13247E-01   -0.40976E-03  1224   0.192E-01    0.594E-01
RMM:   5    -0.128578021181E+03    0.89327E-03   -0.86381E-04  1070   0.925E-02    0.343E-01
RMM:   6    -0.128578388406E+03   -0.36722E-03   -0.16089E-04   833   0.455E-02    0.453E-01
RMM:   7    -0.128577727930E+03    0.66048E-03   -0.66935E-05   792   0.306E-02    0.547E-02
RMM:   8    -0.128578345792E+03   -0.61786E-03   -0.73862E-05   755   0.257E-02    0.231E-01
RMM:   9    -0.128578226466E+03    0.11933E-03   -0.53437E-05   733   0.233E-02    0.358E-02
RMM:  10    -0.128578339479E+03   -0.11301E-03   -0.26782E-05   665   0.174E-02    0.238E-02
RMM:  11    -0.128578388258E+03   -0.48779E-04   -0.27937E-06   500   0.789E-03
  21 F= -.12857839E+03 E0= -.12856493E+03  d E =-.521231E-03  mag=    19.0556
       N       E                     dE             d eps       ncg     rms          rms(c)
DAV:   1    -0.128576577424E+03    0.17621E-02   -0.27124E-01  1648   0.296E+00    0.411E-01
RMM:   2    -0.128906382038E+03   -0.32980E+00   -0.36662E-02  1528   0.495E-01    0.788E+00
RMM:   3    -0.128545616358E+03    0.36077E+00   -0.16762E-02  1342   0.343E-01    0.216E+00
RMM:   4    -0.128580532255E+03   -0.34916E-01   -0.77342E-03  1298   0.269E-01    0.101E+00
RMM:   5    -0.128578186655E+03    0.23456E-02   -0.25509E-03  1164   0.137E-01    0.396E-01
RMM:   6    -0.128578497857E+03   -0.31120E-03   -0.91425E-04  1049   0.870E-02    0.201E-01
RMM:   7    -0.128578830300E+03   -0.33244E-03   -0.16515E-04   857   0.419E-02    0.420E-01
RMM:   8    -0.128578468539E+03    0.36176E-03   -0.18636E-04   867   0.443E-02    0.335E-01
RMM:   9    -0.128578740543E+03   -0.27200E-03   -0.11464E-04   787   0.326E-02    0.377E-01
RMM:  10    -0.128578459366E+03    0.28118E-03   -0.39215E-05   697   0.199E-02    0.158E-01
RMM:  11    -0.128578581000E+03   -0.12163E-03   -0.34190E-05   705   0.169E-02    0.464E-02
RMM:  12    -0.128578732623E+03   -0.15162E-03   -0.26402E-05   706   0.170E-02    0.563E-02
RMM:  13    -0.128578780131E+03   -0.47508E-04   -0.40473E-06   562   0.913E-03
  22 F= -.12857878E+03 E0= -.12856559E+03  d E =-.913104E-03  mag=    19.0547
       N       E                     dE             d eps       ncg     rms          rms(c)
DAV:   1    -0.128578602581E+03    0.13004E-03   -0.32231E-02  1624   0.102E+00    0.148E-01
RMM:   2    -0.128651273072E+03   -0.72670E-01   -0.48850E-03  1413   0.180E-01    0.620E+00
RMM:   3    -0.128548578512E+03    0.10269E+00   -0.53577E-03  1293   0.210E-01    0.102E+00
RMM:   4    -0.128579488990E+03   -0.30910E-01   -0.38427E-03  1186   0.181E-01    0.452E-01
RMM:   5    -0.128578770187E+03    0.71880E-03   -0.51249E-04   989   0.691E-02    0.278E-01
RMM:   6    -0.128578817113E+03   -0.46926E-04   -0.22396E-04   876   0.532E-02
  23 F= -.12857882E+03 E0= -.12856604E+03  d E =-.950085E-03  mag=    19.0542
       N       E                     dE             d eps       ncg     rms          rms(c)
DAV:   1    -0.128578846191E+03   -0.76004E-04   -0.42490E-02  1608   0.104E+00    0.216E-01
RMM:   2    -0.128803442835E+03   -0.22460E+00   -0.10004E-02  1422   0.231E-01    0.781E+00
RMM:   3    -0.128534218826E+03    0.26922E+00   -0.10573E-02  1328   0.275E-01    0.107E+00
RMM:   4    -0.128579098257E+03   -0.44879E-01   -0.59660E-03  1239   0.219E-01    0.457E-01
RMM:   5    -0.128578846140E+03    0.25212E-03   -0.60715E-04  1038   0.856E-02    0.228E-01
RMM:   6    -0.128578909003E+03   -0.62863E-04   -0.86386E-05   796   0.348E-02
  24 F= -.12857891E+03 E0= -.12856560E+03  d E =-.918903E-04  mag=    19.0540
       N       E                     dE             d eps       ncg     rms          rms(c)
DAV:   1    -0.128579073412E+03   -0.22727E-03   -0.16074E-02  1584   0.642E-01    0.184E-01
RMM:   2    -0.128811115257E+03   -0.23204E+00   -0.76813E-03  1373   0.188E-01    0.782E+00
RMM:   3    -0.128531981258E+03    0.27913E+00   -0.10240E-02  1327   0.267E-01    0.626E-01
RMM:   4    -0.128578949411E+03   -0.46968E-01   -0.53213E-03  1222   0.200E-01    0.649E-01
RMM:   5    -0.128578477189E+03    0.47222E-03   -0.57793E-04  1033   0.759E-02    0.105E-01
RMM:   6    -0.128579159819E+03   -0.68263E-03   -0.29928E-04   885   0.563E-02    0.102E-01
RMM:   7    -0.128579184071E+03   -0.24253E-04   -0.15438E-05   688   0.175E-02
  25 F= -.12857918E+03 E0= -.12856575E+03  d E =-.366959E-03  mag=    19.0536
       N       E                     dE             d eps       ncg     rms          rms(c)
DAV:   1    -0.128579054880E+03    0.10494E-03   -0.64582E-02  1612   0.127E+00    0.325E-01
RMM:   2    -0.129060960025E+03   -0.48191E+00   -0.24279E-02  1390   0.337E-01    0.805E+00
RMM:   3    -0.128533475238E+03    0.52748E+00   -0.21080E-02  1334   0.349E-01    0.993E-01
RMM:   4    -0.128579585711E+03   -0.46110E-01   -0.63595E-03  1265   0.234E-01    0.731E-01
RMM:   5    -0.128579662476E+03   -0.76765E-04   -0.83335E-04  1081   0.933E-02
  26 F= -.12857966E+03 E0= -.12856477E+03  d E =-.845364E-03  mag=    19.0538
       N       E                     dE             d eps       ncg     rms          rms(c)
DAV:   1    -0.128577907324E+03    0.16784E-02   -0.45802E-02  1608   0.105E+00    0.298E-01
RMM:   2    -0.128762243934E+03   -0.18434E+00   -0.22973E-02  1412   0.334E-01    0.410E+00
RMM:   3    -0.128572745331E+03    0.18950E+00   -0.13295E-02  1343   0.282E-01    0.134E+00
RMM:   4    -0.128578080453E+03   -0.53351E-02   -0.61870E-03  1240   0.194E-01    0.278E-01
RMM:   5    -0.128579223161E+03   -0.11427E-02   -0.75498E-04  1038   0.989E-02    0.246E-01
RMM:   6    -0.128579254093E+03   -0.30932E-04   -0.76511E-05   792   0.320E-02
  27 F= -.12857925E+03 E0= -.12856685E+03  d E =-.436981E-03  mag=    19.0526
       N       E                     dE             d eps       ncg     rms          rms(c)
DAV:   1    -0.128579142577E+03    0.80584E-04   -0.11454E-02  1600   0.533E-01    0.136E-01
RMM:   2    -0.128608086191E+03   -0.28944E-01   -0.37349E-03  1369   0.151E-01    0.282E+00
RMM:   3    -0.128576996653E+03    0.31090E-01   -0.31579E-03  1237   0.145E-01    0.158E+00
RMM:   4    -0.128578172224E+03   -0.11756E-02   -0.32122E-03  1169   0.165E-01    0.180E-01
RMM:   5    -0.128579344200E+03   -0.11720E-02   -0.59861E-04   990   0.760E-02    0.621E-02
RMM:   6    -0.128579404142E+03   -0.59941E-04   -0.43878E-05   748   0.301E-02
  28 F= -.12857940E+03 E0= -.12856631E+03  d E =-.587029E-03  mag=    19.0522
       N       E                     dE             d eps       ncg     rms          rms(c)
DAV:   1    -0.128579444707E+03   -0.10051E-03   -0.22854E-03  1584   0.243E-01    0.614E-02
RMM:   2    -0.128606073935E+03   -0.26629E-01   -0.79080E-04  1159   0.635E-02    0.419E+00
RMM:   3    -0.128565847872E+03    0.40226E-01   -0.35076E-03  1183   0.161E-01    0.455E-01
RMM:   4    -0.128579427905E+03   -0.13580E-01   -0.27717E-03  1111   0.137E-01    0.254E-01
RMM:   5    -0.128579353486E+03    0.74419E-04   -0.18978E-04   854   0.457E-02
  29 F= -.12857935E+03 E0= -.12856667E+03  d E =-.536374E-03  mag=    19.0518
       N       E                     dE             d eps       ncg     rms          rms(c)
DAV:   1    -0.128579441140E+03   -0.13235E-04   -0.85487E-04  1404   0.152E-01    0.379E-02
RMM:   2    -0.128590631095E+03   -0.11190E-01   -0.29374E-04   964   0.428E-02    0.272E+00
RMM:   3    -0.128574237840E+03    0.16393E-01   -0.18011E-03  1092   0.120E-01    0.220E-01
RMM:   4    -0.128579338341E+03   -0.51005E-02   -0.12465E-03  1016   0.947E-02    0.146E-01
RMM:   5    -0.128579420784E+03   -0.82443E-04   -0.90338E-05   764   0.294E-02
  30 F= -.12857942E+03 E0= -.12856654E+03  d E =-.603672E-03  mag=    19.0515
       N       E                     dE             d eps       ncg     rms          rms(c)
DAV:   1    -0.128579484595E+03   -0.14625E-03   -0.22614E-04  1116   0.802E-02    0.268E-02
RMM:   2    -0.128583338557E+03   -0.38540E-02   -0.14598E-04   850   0.315E-02    0.122E+00
RMM:   3    -0.128577342992E+03    0.59956E-02   -0.56143E-04   951   0.658E-02    0.143E-01
RMM:   4    -0.128579461300E+03   -0.21183E-02   -0.39997E-04   865   0.491E-02    0.696E-02
RMM:   5    -0.128579498413E+03   -0.37113E-04   -0.22009E-05   680   0.201E-02
  31 F= -.12857950E+03 E0= -.12856642E+03  d E =-.681301E-03  mag=    19.0512
       N       E                     dE             d eps       ncg     rms          rms(c)
DAV:   1    -0.128579496461E+03   -0.35162E-04   -0.61277E-05  1020   0.421E-02    0.196E-02
RMM:   2    -0.128582534804E+03   -0.30383E-02   -0.65176E-05   758   0.201E-02    0.137E+00
RMM:   3    -0.128577622867E+03    0.49119E-02   -0.50531E-04   927   0.669E-02    0.894E-02
RMM:   4    -0.128579429849E+03   -0.18070E-02   -0.26601E-04   859   0.487E-02    0.855E-02
RMM:   5    -0.128579519522E+03   -0.89673E-04   -0.61451E-05   707   0.230E-02
  32 F= -.12857952E+03 E0= -.12856677E+03  d E =-.702410E-03  mag=    19.0509
       N       E                     dE             d eps       ncg     rms          rms(c)
DAV:   1    -0.128579486718E+03   -0.56869E-04   -0.52987E-05   908   0.306E-02    0.123E-02
RMM:   2    -0.128580720373E+03   -0.12337E-02   -0.28360E-05   690   0.146E-02    0.840E-01
RMM:   3    -0.128578671000E+03    0.20494E-02   -0.30579E-04   845   0.472E-02    0.518E-02
RMM:   4    -0.128579454605E+03   -0.78360E-03   -0.15692E-04   745   0.329E-02    0.588E-02
RMM:   5    -0.128579527857E+03   -0.73252E-04   -0.37199E-05   670   0.190E-02
  33 F= -.12857953E+03 E0= -.12856660E+03  d E =-.710744E-03  mag=    19.0507
       N       E                     dE             d eps       ncg     rms          rms(c)
DAV:   1    -0.128579525566E+03   -0.70961E-04   -0.73670E-06   936   0.138E-02    0.460E-03
RMM:   2    -0.128579609003E+03   -0.83436E-04   -0.28503E-06   377   0.643E-03
  34 F= -.12857961E+03 E0= -.12856599E+03  d E =-.791890E-03  mag=    19.0506
       N       E                     dE             d eps       ncg     rms          rms(c)
DAV:   1    -0.128579452539E+03    0.73028E-04   -0.30660E-04   940   0.348E-02    0.243E-02
RMM:   2    -0.128581535975E+03   -0.20834E-02   -0.81903E-05   731   0.216E-02    0.108E+00
RMM:   3    -0.128578147618E+03    0.33884E-02   -0.37000E-04   893   0.566E-02    0.130E-01
RMM:   4    -0.128579413300E+03   -0.12657E-02   -0.20464E-04   803   0.398E-02    0.417E-02
RMM:   5    -0.128579534402E+03   -0.12110E-03   -0.45062E-05   697   0.234E-02    0.564E-03
RMM:   6    -0.128579536453E+03   -0.20506E-05   -0.17084E-06   391   0.723E-03
  35 F= -.12857954E+03 E0= -.12856651E+03  d E =-.719340E-03  mag=    19.0504
       N       E                     dE             d eps       ncg     rms          rms(c)
DAV:   1    -0.128579537580E+03   -0.31774E-05   -0.95140E-07   904   0.549E-03    0.472E-03
RMM:   2    -0.128579694993E+03   -0.15741E-03   -0.23376E-06   290   0.504E-03    0.277E-01
RMM:   3    -0.128579384309E+03    0.31068E-03   -0.20441E-05   635   0.168E-02    0.229E-02
RMM:   4    -0.128579530581E+03   -0.14627E-03   -0.13179E-05   555   0.123E-02    0.145E-02
RMM:   5    -0.128579539496E+03   -0.89156E-05   -0.21919E-06   397   0.666E-03
  36 F= -.12857954E+03 E0= -.12856652E+03  d E =-.722384E-03  mag=    19.0502
       N       E                     dE             d eps       ncg     rms          rms(c)
DAV:   1    -0.128579540205E+03   -0.96247E-05   -0.70284E-07   824   0.457E-03    0.162E-03
RMM:   2    -0.128579556869E+03   -0.16663E-04   -0.98385E-09   105   0.240E-03
  37 F= -.12857956E+03 E0= -.12856627E+03  d E =-.739756E-03  mag=    19.0502
       N       E                     dE             d eps       ncg     rms          rms(c)
DAV:   1    -0.128579714822E+03   -0.17462E-03   -0.11511E-02  1440   0.341E-01    0.647E-02
RMM:   2    -0.128592749609E+03   -0.13035E-01   -0.85644E-04  1095   0.739E-02    0.294E+00
RMM:   3    -0.128574222678E+03    0.18527E-01   -0.22628E-03  1113   0.131E-01    0.529E-01
RMM:   4    -0.128579908851E+03   -0.56862E-02   -0.18477E-03  1075   0.116E-01    0.224E-01
RMM:   5    -0.128579711935E+03    0.19692E-03   -0.11031E-04   817   0.365E-02    0.159E-01
RMM:   6    -0.128579706064E+03    0.58714E-05   -0.35796E-05   727   0.243E-02
  38 F= -.12857971E+03 E0= -.12856696E+03  d E =-.149195E-03  mag=    19.0502
       N       E                     dE             d eps       ncg     rms          rms(c)
DAV:   1    -0.128579990875E+03   -0.27894E-03   -0.10242E-01  1536   0.102E+00    0.155E-01
RMM:   2    -0.128585518789E+03   -0.55279E-02   -0.49013E-03  1298   0.187E-01    0.189E+00
RMM:   3    -0.128584134732E+03    0.13841E-02   -0.12927E-03  1128   0.110E-01    0.151E+00
RMM:   4    -0.128579030738E+03    0.51040E-02   -0.20518E-03  1127   0.129E-01    0.498E-01
RMM:   5    -0.128579492500E+03   -0.46176E-03   -0.54573E-04  1006   0.713E-02    0.146E-01
RMM:   6    -0.128580127757E+03   -0.63526E-03   -0.14079E-04   825   0.387E-02    0.250E-01
RMM:   7    -0.128579996194E+03    0.13156E-03   -0.37879E-05   748   0.261E-02    0.808E-02
RMM:   8    -0.128580181047E+03   -0.18485E-03   -0.29928E-05   749   0.231E-02    0.950E-02
RMM:   9    -0.128580163623E+03    0.17424E-04   -0.10494E-05   628   0.130E-02
  39 F= -.12858016E+03 E0= -.12856714E+03  d E =-.606755E-03  mag=    19.0515
       N       E                     dE             d eps       ncg     rms          rms(c)
DAV:   1    -0.128579368343E+03    0.81270E-03   -0.41114E-01  1536   0.204E+00    0.366E-01
RMM:   2    -0.128842017682E+03   -0.26265E+00   -0.27997E-02  1424   0.420E-01    0.791E+00
RMM:   3    -0.128545441300E+03    0.29658E+00   -0.14011E-02  1342   0.319E-01    0.199E+00
RMM:   4    -0.128581244374E+03   -0.35803E-01   -0.74325E-03  1270   0.252E-01    0.676E-01
RMM:   5    -0.128579842176E+03    0.14022E-02   -0.19980E-03  1161   0.123E-01    0.409E-01
RMM:   6    -0.128579578143E+03    0.26403E-03   -0.82297E-04  1045   0.839E-02    0.882E-02
RMM:   7    -0.128579882972E+03   -0.30483E-03   -0.14661E-04   847   0.409E-02    0.167E-01
RMM:   8    -0.128579873295E+03    0.96766E-05   -0.67319E-05   788   0.292E-02
  40 F= -.12857987E+03 E0= -.12856648E+03  d E =-.316426E-03  mag=    19.0561
       N       E                     dE             d eps       ncg     rms          rms(c)
DAV:   1    -0.128579878177E+03    0.47943E-05   -0.13088E-01  1600   0.115E+00    0.374E-01
RMM:   2    -0.128905690887E+03   -0.32581E+00   -0.32279E-02  1359   0.389E-01    0.686E+00
RMM:   3    -0.128555816807E+03    0.34987E+00   -0.27464E-02  1362   0.385E-01    0.592E-01
RMM:   4    -0.128578907640E+03   -0.23091E-01   -0.72815E-03  1237   0.228E-01    0.435E-01
RMM:   5    -0.128579796291E+03   -0.88865E-03   -0.10336E-03  1119   0.921E-02    0.211E-01
RMM:   6    -0.128580101713E+03   -0.30542E-03   -0.28035E-04   925   0.578E-02    0.347E-01
RMM:   7    -0.128579877638E+03    0.22407E-03   -0.70648E-05   765   0.292E-02    0.226E-01
RMM:   8    -0.128580030421E+03   -0.15278E-03   -0.89609E-05   793   0.257E-02    0.158E-01
RMM:   9    -0.128580183676E+03   -0.15325E-03   -0.42822E-05   719   0.197E-02    0.120E-01
RMM:  10    -0.128580336850E+03   -0.15317E-03   -0.35246E-05   695   0.159E-02    0.141E-01
RMM:  11    -0.128580327027E+03    0.98232E-05   -0.41168E-05   663   0.140E-02
  41 F= -.12858033E+03 E0= -.12856755E+03  d E =-.770158E-03  mag=    19.0544
       N       E                     dE             d eps       ncg     rms          rms(c)
DAV:   1    -0.128580287624E+03    0.49226E-04   -0.33972E-02  1712   0.101E+00    0.134E-01
RMM:   2    -0.128664752609E+03   -0.84465E-01   -0.52796E-03  1481   0.194E-01    0.652E+00
RMM:   3    -0.128546398410E+03    0.11835E+00   -0.56801E-03  1295   0.218E-01    0.639E-01
RMM:   4    -0.128581010612E+03   -0.34612E-01   -0.39956E-03  1186   0.175E-01    0.706E-01
RMM:   5    -0.128579761850E+03    0.12488E-02   -0.52487E-04  1000   0.705E-02    0.737E-02
RMM:   6    -0.128580453117E+03   -0.69127E-03   -0.27183E-04   895   0.533E-02    0.241E-02
RMM:   7    -0.128580518603E+03   -0.65486E-04   -0.28732E-05   742   0.226E-02
  42 F= -.12858052E+03 E0= -.12856739E+03  d E =-.191576E-03  mag=    19.0563
       N       E                     dE             d eps       ncg     rms          rms(c)
DAV:   1    -0.128580497688E+03   -0.44571E-04   -0.84425E-03  1600   0.503E-01    0.664E-02
RMM:   2    -0.128581526006E+03   -0.10283E-02   -0.97921E-04  1305   0.931E-02    0.682E-01
RMM:   3    -0.128582806527E+03   -0.12805E-02   -0.32728E-04   902   0.545E-02    0.102E+00
RMM:   4    -0.128579238743E+03    0.35678E-02   -0.64407E-04   991   0.716E-02    0.108E-01
RMM:   5    -0.128580550024E+03   -0.13113E-02   -0.26458E-04   851   0.480E-02    0.704E-02
RMM:   6    -0.128580567981E+03   -0.17957E-04   -0.20371E-05   695   0.189E-02
  43 F= -.12858057E+03 E0= -.12856795E+03  d E =-.240954E-03  mag=    19.0576
       N       E                     dE             d eps       ncg     rms          rms(c)
DAV:   1    -0.128580411624E+03    0.13840E-03   -0.33598E-02  1620   0.100E+00    0.217E-01
RMM:   2    -0.128871950523E+03   -0.29154E+00   -0.12819E-02  1446   0.261E-01    0.793E+00
RMM:   3    -0.128533352762E+03    0.33860E+00   -0.12045E-02  1329   0.286E-01    0.477E-01
RMM:   4    -0.128578892932E+03   -0.45540E-01   -0.49694E-03  1197   0.193E-01    0.270E-01
RMM:   5    -0.128580486312E+03   -0.15934E-02   -0.51205E-04   980   0.725E-02    0.242E-01
RMM:   6    -0.128580469443E+03    0.16870E-04   -0.18282E-04   856   0.484E-02
  44 F= -.12858047E+03 E0= -.12856752E+03  d E =-.142416E-03  mag=    19.0597
       N       E                     dE             d eps       ncg     rms          rms(c)
DAV:   1    -0.128579992092E+03    0.49422E-03   -0.61740E-02  1580   0.170E+00    0.225E-01
RMM:   2    -0.128693992711E+03   -0.11400E+00   -0.13213E-02  1538   0.320E-01    0.342E+00
RMM:   3    -0.128570504559E+03    0.12349E+00   -0.68978E-03  1317   0.223E-01    0.286E-01
RMM:   4    -0.128580249108E+03   -0.97445E-02   -0.20955E-03  1156   0.127E-01    0.425E-01
RMM:   5    -0.128580636043E+03   -0.38693E-03   -0.69126E-04  1023   0.808E-02    0.179E-01
RMM:   6    -0.128580883038E+03   -0.24699E-03   -0.11518E-04   820   0.425E-02    0.329E-01
RMM:   7    -0.128580660388E+03    0.22265E-03   -0.11640E-04   804   0.334E-02    0.950E-02
RMM:   8    -0.128580767491E+03   -0.10710E-03   -0.30828E-05   727   0.187E-02    0.179E-01
RMM:   9    -0.128580707104E+03    0.60387E-04   -0.51058E-05   713   0.208E-02
  45 F= -.12858071E+03 E0= -.12856767E+03  d E =-.237661E-03  mag=    19.0626
       N       E                     dE             d eps       ncg     rms          rms(c)
DAV:   1    -0.128578491686E+03    0.22758E-02   -0.19418E-01  1624   0.300E+00    0.308E-01
RMM:   2    -0.128646967735E+03   -0.68476E-01   -0.27527E-02  1529   0.474E-01    0.605E+00
RMM:   3    -0.128558790158E+03    0.88178E-01   -0.57936E-03  1308   0.244E-01    0.159E+00
RMM:   4    -0.128584092405E+03   -0.25302E-01   -0.57914E-03  1270   0.220E-01    0.958E-01
RMM:   5    -0.128580304391E+03    0.37880E-02   -0.20688E-03  1157   0.126E-01    0.377E-01
RMM:   6    -0.128581498546E+03   -0.11942E-02   -0.60249E-04  1013   0.804E-02    0.629E-01
RMM:   7    -0.128580163408E+03    0.13351E-02   -0.13223E-04   837   0.432E-02    0.272E-01
RMM:   8    -0.128580528382E+03   -0.36497E-03   -0.55222E-05   764   0.240E-02    0.205E-01
RMM:   9    -0.128580735033E+03   -0.20665E-03   -0.73442E-05   779   0.304E-02    0.783E-02
RMM:  10    -0.128580776737E+03   -0.41703E-04   -0.15757E-05   688   0.162E-02
  46 F= -.12858078E+03 E0= -.12856786E+03  d E =-.307294E-03  mag=    19.0667
       N       E                     dE             d eps       ncg     rms          rms(c)
DAV:   1    -0.128580551455E+03    0.18358E-03   -0.23767E-02  1632   0.105E+00    0.107E-01
RMM:   2    -0.128590283379E+03   -0.97319E-02   -0.32372E-03  1446   0.172E-01    0.175E+00
RMM:   3    -0.128577173715E+03    0.13110E-01   -0.12113E-03  1082   0.109E-01    0.191E-01
RMM:   4    -0.128581098840E+03   -0.39251E-02   -0.99531E-04  1047   0.806E-02    0.314E-01
RMM:   5    -0.128580796354E+03    0.30249E-03   -0.22107E-04   875   0.495E-02    0.127E-01
RMM:   6    -0.128580921084E+03   -0.12473E-03   -0.40272E-05   723   0.245E-02    0.165E-01
RMM:   7    -0.128580871922E+03    0.49163E-04   -0.12041E-05   675   0.148E-02
  47 F= -.12858087E+03 E0= -.12856793E+03  d E =-.402479E-03  mag=    19.0688
       N       E                     dE             d eps       ncg     rms          rms(c)
DAV:   1    -0.128581122167E+03   -0.20108E-03   -0.25508E-02  1484   0.679E-01    0.104E-01
RMM:   2    -0.128638775300E+03   -0.57653E-01   -0.37718E-03  1375   0.148E-01    0.329E+00
RMM:   3    -0.128571749217E+03    0.67026E-01   -0.37184E-03  1262   0.162E-01    0.567E-01
RMM:   4    -0.128579363815E+03   -0.76146E-02   -0.99946E-04  1051   0.901E-02    0.144E-01
RMM:   5    -0.128581073591E+03   -0.17098E-02   -0.41503E-04   897   0.573E-02    0.108E-01
RMM:   6    -0.128581260240E+03   -0.18665E-03   -0.60987E-05   793   0.292E-02    0.226E-01
RMM:   7    -0.128581158524E+03    0.10172E-03   -0.66363E-05   781   0.272E-02    0.254E-02
RMM:   8    -0.128581253054E+03   -0.94530E-04   -0.37747E-05   672   0.169E-02
  48 F= -.12858125E+03 E0= -.12856863E+03  d E =-.381132E-03  mag=    19.0703
       N       E                     dE             d eps       ncg     rms          rms(c)
DAV:   1    -0.128581160416E+03   -0.18918E-05   -0.76916E-02  1552   0.118E+00    0.116E-01
RMM:   2    -0.128613073532E+03   -0.31913E-01   -0.55103E-03  1432   0.204E-01    0.295E+00
RMM:   3    -0.128573397938E+03    0.39676E-01   -0.26205E-03  1189   0.153E-01    0.626E-01
RMM:   4    -0.128580663871E+03   -0.72659E-02   -0.91473E-04  1057   0.861E-02    0.627E-01
RMM:   5    -0.128580429571E+03    0.23430E-03   -0.29759E-04   924   0.507E-02    0.208E-01
RMM:   6    -0.128581297194E+03   -0.86762E-03   -0.17585E-04   840   0.423E-02    0.204E-01
RMM:   7    -0.128581455583E+03   -0.15839E-03   -0.97974E-05   818   0.366E-02    0.288E-02
RMM:   8    -0.128581520357E+03   -0.64775E-04   -0.25613E-05   722   0.174E-02
  49 F= -.12858152E+03 E0= -.12856907E+03  d E =-.648436E-03  mag=    19.0709
       N       E                     dE             d eps       ncg     rms          rms(c)
DAV:   1    -0.128581584746E+03   -0.12916E-03   -0.33205E-03  1584   0.254E-01    0.315E-02
RMM:   2    -0.128585886754E+03   -0.43020E-02   -0.30217E-04  1008   0.500E-02    0.125E+00
RMM:   3    -0.128579612674E+03    0.62741E-02   -0.56246E-04   945   0.667E-02    0.775E-02
RMM:   4    -0.128581559313E+03   -0.19466E-02   -0.35134E-04   841   0.470E-02    0.390E-02
RMM:   5    -0.128581651472E+03   -0.92159E-04   -0.24935E-05   698   0.205E-02
  50 F= -.12858165E+03 E0= -.12856892E+03  d E =-.131115E-03  mag=    19.0709
       N       E                     dE             d eps       ncg     rms          rms(c)
DAV:   1    -0.128581785068E+03   -0.22575E-03   -0.29837E-02  1512   0.757E-01    0.106E-01
RMM:   2    -0.128648752929E+03   -0.66968E-01   -0.38223E-03  1371   0.157E-01    0.606E+00
RMM:   3    -0.128552851086E+03    0.95902E-01   -0.46492E-03  1270   0.203E-01    0.446E-01
RMM:   4    -0.128581086087E+03   -0.28235E-01   -0.27731E-03  1132   0.152E-01    0.324E-01
RMM:   5    -0.128582165594E+03   -0.10795E-02   -0.43895E-04   906   0.631E-02    0.377E-01
RMM:   6    -0.128581724410E+03    0.44118E-03   -0.80723E-05   811   0.374E-02    0.118E-01
RMM:   7    -0.128581933501E+03   -0.20909E-03   -0.37333E-05   717   0.219E-02    0.912E-02
RMM:   8    -0.128581934227E+03   -0.72553E-06   -0.10296E-05   597   0.111E-02
  51 F= -.12858193E+03 E0= -.12856899E+03  d E =-.413869E-03  mag=    19.0710
       N       E                     dE             d eps       ncg     rms          rms(c)
DAV:   1    -0.128581638619E+03    0.29488E-03   -0.11944E-01  1568   0.152E+00    0.168E-01
RMM:   2    -0.128689296367E+03   -0.10766E+00   -0.11202E-02  1453   0.279E-01    0.703E+00
RMM:   3    -0.128545083912E+03    0.14421E+00   -0.64229E-03  1308   0.243E-01    0.778E-01
RMM:   4    -0.128582686130E+03   -0.37602E-01   -0.41592E-03  1202   0.186E-01    0.547E-01
RMM:   5    -0.128581908490E+03    0.77764E-03   -0.66660E-04  1037   0.790E-02    0.218E-01
RMM:   6    -0.128582167575E+03   -0.25909E-03   -0.30346E-04   905   0.579E-02    0.550E-02
RMM:   7    -0.128582231629E+03   -0.64054E-04   -0.20362E-05   751   0.204E-02
  52 F= -.12858223E+03 E0= -.12856931E+03  d E =-.711271E-03  mag=    19.0712
       N       E                     dE             d eps       ncg     rms          rms(c)
DAV:   1    -0.128579843135E+03    0.23244E-02   -0.47781E-01  1568   0.303E+00    0.367E-01
RMM:   2    -0.128982014934E+03   -0.40217E+00   -0.49413E-02  1484   0.572E-01    0.809E+00
RMM:   3    -0.128542312083E+03    0.43970E+00   -0.17734E-02  1343   0.374E-01    0.146E+00
RMM:   4    -0.128583990482E+03   -0.41678E-01   -0.70756E-03  1272   0.248E-01    0.896E-01
RMM:   5    -0.128581890123E+03    0.21004E-02   -0.15295E-03  1140   0.120E-01    0.578E-01
RMM:   6    -0.128581724648E+03    0.16548E-03   -0.34187E-04   923   0.541E-02    0.186E-01
RMM:   7    -0.128582130638E+03   -0.40599E-03   -0.22921E-04   896   0.461E-02    0.302E-01
RMM:   8    -0.128582085993E+03    0.44645E-04   -0.17203E-04   847   0.456E-02
  53 F= -.12858209E+03 E0= -.12856872E+03  d E =-.565635E-03  mag=    19.0717
       N       E                     dE             d eps       ncg     rms          rms(c)
DAV:   1    -0.128580939826E+03    0.11908E-02   -0.26044E-01  1600   0.223E+00    0.480E-01
RMM:   2    -0.129140887205E+03   -0.55995E+00   -0.68957E-02  1420   0.600E-01    0.710E+00
RMM:   3    -0.128559366490E+03    0.58152E+00   -0.44046E-02  1373   0.491E-01    0.774E-01
RMM:   4    -0.128580140376E+03   -0.20774E-01   -0.79066E-03  1293   0.258E-01    0.756E-01
RMM:   5    -0.128582024585E+03   -0.18842E-02   -0.13979E-03  1142   0.988E-02    0.693E-01
RMM:   6    -0.128582512208E+03   -0.48762E-03   -0.80923E-04  1053   0.845E-02    0.635E-01
RMM:   7    -0.128582047007E+03    0.46520E-03   -0.36145E-04   920   0.530E-02    0.422E-01
RMM:   8    -0.128581947179E+03    0.99828E-04   -0.12444E-04   825   0.324E-02
  54 F= -.12858195E+03 E0= -.12856902E+03  d E =-.426822E-03  mag=    19.0693
       N       E                     dE             d eps       ncg     rms          rms(c)
DAV:   1    -0.128582439644E+03   -0.39264E-03   -0.12654E-03  1568   0.167E-01    0.145E-01
RMM:   2    -0.128684825266E+03   -0.10239E+00   -0.53423E-03  1303   0.143E-01    0.337E+00
RMM:   3    -0.128572310245E+03    0.11252E+00   -0.62473E-03  1300   0.185E-01    0.271E-01
RMM:   4    -0.128581512280E+03   -0.92020E-02   -0.13964E-03  1077   0.103E-01    0.185E-01
RMM:   5    -0.128582341634E+03   -0.82935E-03   -0.21454E-04   870   0.454E-02    0.132E-01
RMM:   6    -0.128582499710E+03   -0.15808E-03   -0.48900E-05   779   0.267E-02    0.223E-01
RMM:   7    -0.128582415105E+03    0.84606E-04   -0.10023E-04   770   0.278E-02
  55 F= -.12858242E+03 E0= -.12856982E+03  d E =-.894747E-03  mag=    19.0690
       N       E                     dE             d eps       ncg     rms          rms(c)
DAV:   1    -0.128582485862E+03    0.13848E-04   -0.68708E-04  1504   0.115E-01    0.486E-02
RMM:   2    -0.128605778464E+03   -0.23293E-01   -0.58098E-04  1070   0.514E-02    0.388E+00
RMM:   3    -0.128571129725E+03    0.34649E-01   -0.36805E-03  1162   0.159E-01    0.304E-01
RMM:   4    -0.128582445622E+03   -0.11316E-01   -0.27011E-03  1073   0.130E-01    0.369E-01
RMM:   5    -0.128582430683E+03    0.14939E-04   -0.39620E-04   890   0.578E-02
  56 F= -.12858243E+03 E0= -.12857032E+03  d E =-.910326E-03  mag=    19.0689
       N       E                     dE             d eps       ncg     rms          rms(c)
DAV:   1    -0.128582441529E+03    0.40928E-05   -0.22812E-04  1076   0.567E-02    0.212E-02
RMM:   2    -0.128583632300E+03   -0.11908E-02   -0.53282E-05   767   0.256E-02    0.694E-01
RMM:   3    -0.128581775248E+03    0.18571E-02   -0.15670E-04   830   0.378E-02    0.133E-01
RMM:   4    -0.128582541216E+03   -0.76597E-03   -0.11998E-04   759   0.315E-02    0.137E-01
RMM:   5    -0.128582471883E+03    0.69333E-04   -0.33042E-05   663   0.186E-02
  57 F= -.12858247E+03 E0= -.12856984E+03  d E =-.951526E-03  mag=    19.0689
       N       E                     dE             d eps       ncg     rms          rms(c)
DAV:   1    -0.128582493387E+03    0.47828E-04   -0.84493E-06   940   0.135E-02    0.181E-02
RMM:   2    -0.128585026858E+03   -0.25335E-02   -0.66126E-05   744   0.188E-02    0.996E-01
RMM:   3    -0.128581124549E+03    0.39023E-02   -0.35609E-04   877   0.527E-02    0.735E-02
RMM:   4    -0.128582432378E+03   -0.13078E-02   -0.23486E-04   777   0.358E-02    0.521E-02
RMM:   5    -0.128582503813E+03   -0.71435E-04   -0.25192E-05   689   0.205E-02
  58 F= -.12858250E+03 E0= -.12856985E+03  d E =-.983456E-03  mag=    19.0688
       N       E                     dE             d eps       ncg     rms          rms(c)
DAV:   1    -0.128582506681E+03   -0.74303E-04   -0.71935E-06   876   0.110E-02    0.295E-02
RMM:   2    -0.128589293234E+03   -0.67866E-02   -0.18403E-04   827   0.282E-02    0.152E+00
RMM:   3    -0.128579692519E+03    0.96007E-02   -0.82000E-04   993   0.772E-02    0.108E-01
RMM:   4    -0.128582296574E+03   -0.26041E-02   -0.46505E-04   865   0.534E-02    0.113E-01
RMM:   5    -0.128582506955E+03   -0.21038E-03   -0.59321E-05   739   0.293E-02    0.555E-02
RMM:   6    -0.128582497072E+03    0.98828E-05   -0.88979E-06   550   0.114E-02
  59 F= -.12858250E+03 E0= -.12856983E+03  d E =-.976715E-03  mag=    19.0687
       N       E                     dE             d eps       ncg     rms          rms(c)
DAV:   1    -0.128582495939E+03    0.11016E-04   -0.84468E-06   880   0.101E-02    0.628E-03
RMM:   2    -0.128582781267E+03   -0.28533E-03   -0.83279E-06   475   0.823E-03    0.357E-01
RMM:   3    -0.128582278692E+03    0.50258E-03   -0.38664E-05   659   0.211E-02    0.251E-02
RMM:   4    -0.128582481794E+03   -0.20310E-03   -0.22562E-05   587   0.141E-02    0.177E-02
RMM:   5    -0.128582503988E+03   -0.22193E-04   -0.38793E-06   445   0.801E-03
  60 F= -.12858250E+03 E0= -.12856990E+03  d E =-.983630E-03  mag=    19.0686
       N       E                     dE             d eps       ncg     rms          rms(c)
DAV:   1    -0.128582508117E+03   -0.26322E-04   -0.38676E-06   860   0.736E-03    0.145E-03
RMM:   2    -0.128582520342E+03   -0.12225E-04   -0.13009E-07   140   0.304E-03
  61 F= -.12858252E+03 E0= -.12857018E+03  d E =-.999985E-03  mag=    19.0686
       N       E                     dE             d eps       ncg     rms          rms(c)
DAV:   1    -0.128582483595E+03    0.24522E-04   -0.36230E-05   848   0.133E-02    0.767E-03
RMM:   2    -0.128582669946E+03   -0.18635E-03   -0.73887E-06   422   0.718E-03    0.289E-01
RMM:   3    -0.128582409153E+03    0.26079E-03   -0.85596E-05   659   0.232E-02    0.499E-02
RMM:   4    -0.128582505508E+03   -0.96354E-04   -0.56419E-05   620   0.172E-02
  62 F= -.12858251E+03 E0= -.12856999E+03  d E =-.985150E-03  mag=    19.0686
       N       E                     dE             d eps       ncg     rms          rms(c)
DAV:   1    -0.128582507460E+03   -0.98307E-04   -0.12845E-05   824   0.122E-02    0.203E-02
RMM:   2    -0.128585774659E+03   -0.32672E-02   -0.78666E-05   754   0.194E-02    0.111E+00
RMM:   3    -0.128580868557E+03    0.49061E-02   -0.44157E-04   887   0.574E-02    0.749E-02
RMM:   4    -0.128582417458E+03   -0.15489E-02   -0.28686E-04   806   0.400E-02    0.588E-02
RMM:   5    -0.128582507948E+03   -0.90491E-04   -0.23887E-05   673   0.189E-02
  63 F= -.12858251E+03 E0= -.12856976E+03  d E =-.987591E-03  mag=    19.0686
       N       E                     dE             d eps       ncg     rms          rms(c)
DAV:   1    -0.128582493650E+03   -0.76193E-04   -0.24324E-05   864   0.164E-02    0.306E-02
RMM:   2    -0.128589729091E+03   -0.72354E-02   -0.20482E-04   839   0.295E-02    0.156E+00
RMM:   3    -0.128579545048E+03    0.10184E-01   -0.85767E-04   993   0.787E-02    0.115E-01
RMM:   4    -0.128582279134E+03   -0.27341E-02   -0.48204E-04   868   0.542E-02    0.102E-01
RMM:   5    -0.128582502059E+03   -0.22292E-03   -0.62811E-05   739   0.294E-02    0.534E-02
RMM:   6    -0.128582502266E+03   -0.20688E-06   -0.12485E-05   558   0.119E-02
  64 F= -.12858250E+03 E0= -.12856984E+03  d E =-.981909E-03  mag=    19.0685
       N       E                     dE             d eps       ncg     rms          rms(c)
DAV:   1    -0.128582500273E+03    0.17861E-05   -0.63372E-06   868   0.935E-03    0.750E-03
RMM:   2    -0.128582943581E+03   -0.44331E-03   -0.11100E-05   517   0.886E-03    0.446E-01
RMM:   3    -0.128582172237E+03    0.77134E-03   -0.56441E-05   691   0.248E-02    0.287E-02
RMM:   4    -0.128582479905E+03   -0.30767E-03   -0.34485E-05   638   0.167E-02    0.273E-02
RMM:   5    -0.128582501295E+03   -0.21390E-04   -0.44386E-06   466   0.878E-03
  65 F= -.12858250E+03 E0= -.12856992E+03  d E =-.980937E-03  mag=    19.0685
       N       E                     dE             d eps       ncg     rms          rms(c)
DAV:   1    -0.128582508520E+03   -0.28615E-04   -0.31932E-06   848   0.733E-03    0.326E-03
RMM:   2    -0.128582605044E+03   -0.96525E-04   -0.74492E-07   214   0.412E-03
  66 F= -.12858261E+03 E0= -.12857068E+03  d E =-.108469E-02  mag=    19.0685
       N       E                     dE             d eps       ncg     rms          rms(c)
DAV:   1    -0.128582439476E+03    0.69044E-04   -0.19734E-04   896   0.322E-02    0.301E-02
RMM:   2    -0.128590512884E+03   -0.80734E-02   -0.17952E-04   820   0.290E-02    0.224E+00
RMM:   3    -0.128578775333E+03    0.11738E-01   -0.13528E-03  1045   0.103E-01    0.153E-01
RMM:   4    -0.128582359903E+03   -0.35846E-02   -0.74996E-04   961   0.745E-02    0.172E-01
RMM:   5    -0.128582496809E+03   -0.13691E-03   -0.21816E-04   817   0.421E-02    0.563E-02
RMM:   6    -0.128582489962E+03    0.68467E-05   -0.86184E-06   582   0.129E-02
  67 F= -.12858249E+03 E0= -.12856985E+03  d E =-.969605E-03  mag=    19.0685
       N       E                     dE             d eps       ncg     rms          rms(c)
DAV:   1    -0.128579048809E+03    0.34480E-02   -0.57631E-01  1568   0.332E+00    0.518E-01
RMM:   2    -0.129100772468E+03   -0.52172E+00   -0.85910E-02  1455   0.731E-01    0.711E+00
RMM:   3    -0.128561267248E+03    0.53951E+00   -0.43280E-02  1377   0.506E-01    0.106E+00
RMM:   4    -0.128580177895E+03   -0.18911E-01   -0.95406E-03  1296   0.277E-01    0.614E-01
RMM:   5    -0.128583383484E+03   -0.32056E-02   -0.19661E-03  1215   0.115E-01    0.106E+00
RMM:   6    -0.128581154791E+03    0.22287E-02   -0.14577E-03  1131   0.112E-01    0.607E-01
RMM:   7    -0.128581699289E+03   -0.54450E-03   -0.66239E-04  1001   0.719E-02    0.556E-01
RMM:   8    -0.128580758836E+03    0.94045E-03   -0.23307E-04   902   0.438E-02    0.537E-02
RMM:   9    -0.128581431653E+03   -0.67282E-03   -0.16421E-04   837   0.344E-02    0.149E-01
RMM:  10    -0.128581438709E+03   -0.70554E-05   -0.59788E-05   752   0.232E-02
  68 F= -.12858144E+03 E0= -.12856864E+03  d E =0.816487E-04  mag=    19.0669
