<?xml version="1.0" encoding="ISO-8859-1"?>
<modeling>
 <generator>
  <i name="program" type="string">vasp </i>
  <i name="version" type="string">5.4.1  </i>
  <i name="subversion" type="string">24Jun15 (build Jan 06 2016 13:10:00) complex                          parallel </i>
  <i name="platform" type="string">IFC91_ompi </i>
  <i name="date" type="string">2016 03 24 </i>
  <i name="time" type="string">00:36:41 </i>
 </generator>
 <incar>
  <i type="string" name="PREC">normal</i>
  <i type="string" name="ALGO"> Fast</i>
  <i type="int" name="ISPIN">     2</i>
  <i type="int" name="ICHARG">     1</i>
  <i type="int" name="NELM">   100</i>
  <i type="int" name="IBRION">     2</i>
  <i name="EDIFF">      0.00010000</i>
  <i name="EDIFFG">     -0.01000000</i>
  <i type="int" name="NSW">    99</i>
  <i type="int" name="ISIF">     0</i>
  <i name="ENCUT">    300.00000000</i>
  <i type="string" name="LREAL"> Auto</i>
  <i type="int" name="ISMEAR">     0</i>
  <i name="SIGMA">      0.05000000</i>
  <i type="int" name="LMAXMIX">     4</i>
  <i type="logical" name="LWAVE"> F  </i>
  <i type="logical" name="LVTOT"> T  </i>
  <v type="int" name="KPOINT_BSE">    -1     0     0     0</v>
  <i type="int" name="NELM">   100</i>
  <i type="logical" name="LDAU"> T  </i>
  <v type="int" name="LDAUTYPE">     2</v>
  <v type="int" name="LDAUL">     0     2     0</v>
  <v name="LDAUU">      0.00000000      5.30000000      0.00000000</v>
  <v name="LDAUJ">      0.00000000      0.00000000      0.00000000</v>
  <i type="int" name="LDAUPRINT">     1</i>
  <i type="logical" name="LDIPOL"> T  </i>
  <i type="int" name="IDIPOL">     3</i>
 </incar>
 <kpoints>
  <generation param="Monkhorst-Pack">
   <v type="int" name="divisions">       4        4        1 </v>
   <v name="usershift">      0.00000000       0.00000000       0.00000000 </v>
   <v name="genvec1">      0.25000000       0.00000000       0.00000000 </v>
   <v name="genvec2">      0.00000000       0.25000000       0.00000000 </v>
   <v name="genvec3">      0.00000000       0.00000000       1.00000000 </v>
   <v name="shift">      0.50000000       0.50000000       0.00000000 </v>
  </generation>
  <varray name="kpointlist" >
   <v>       0.12500000       0.12500000       0.00000000 </v>
   <v>       0.37500000       0.12500000       0.00000000 </v>
   <v>       0.37500000       0.37500000       0.00000000 </v>
  </varray>
  <varray name="weights" >
   <v>       0.25000000 </v>
   <v>       0.50000000 </v>
   <v>       0.25000000 </v>
  </varray>
 </kpoints>
 <parameters>
  <separator name="general" >
   <i type="string" name="SYSTEM">unknown system</i>
   <i type="logical" name="LCOMPAT"> F  </i>
  </separator>
  <separator name="electronic" >
   <i type="string" name="PREC">normal</i>
   <i name="ENMAX">    300.00000000</i>
   <i name="ENAUG">    578.34200000</i>
   <i name="EDIFF">      0.00010000</i>
   <i type="int" name="IALGO">    68</i>
   <i type="int" name="IWAVPR">    11</i>
   <i type="int" name="NBANDS">   116</i>
   <i name="NELECT">    174.00000000</i>
   <i type="int" name="TURBO">     0</i>
   <i type="int" name="IRESTART">     0</i>
   <i type="int" name="NREBOOT">     0</i>
   <i type="int" name="NMIN">     0</i>
   <i name="EREF">      0.00000000</i>
   <separator name="electronic smearing" >
    <i type="int" name="ISMEAR">     0</i>
    <i name="SIGMA">      0.05000000</i>
    <i name="KSPACING">      0.50000000</i>
    <i type="logical" name="KGAMMA"> T  </i>
   </separator>
   <separator name="electronic projectors" >
    <i type="logical" name="LREAL"> T  </i>
    <v name="ROPT">     -0.00050000     -0.00050000     -0.00050000</v>
    <i type="int" name="LMAXPAW">  -100</i>
    <i type="int" name="LMAXMIX">     4</i>
    <i type="logical" name="NLSPLINE"> F  </i>
   </separator>
   <separator name="electronic startup" >
    <i type="int" name="ISTART">     0</i>
    <i type="int" name="ICHARG">     1</i>
    <i type="int" name="INIWAV">     1</i>
   </separator>
   <separator name="electronic spin" >
    <i type="int" name="ISPIN">     2</i>
    <i type="logical" name="LNONCOLLINEAR"> F  </i>
    <v name="MAGMOM">      1.00000000      1.00000000      1.00000000      1.00000000      1.00000000      1.00000000      1.00000000      1.00000000      1.00000000      1.00000000      1.00000000      1.00000000      1.00000000      1.00000000      1.00000000      1.00000000      1.00000000      1.00000000      1.00000000      1.00000000
      1.00000000</v>
    <i name="NUPDOWN">     -1.00000000</i>
    <i type="logical" name="LSORBIT"> F  </i>
    <v name="SAXIS">      0.00000000      0.00000000      1.00000000</v>
    <i type="logical" name="LSPIRAL"> F  </i>
    <v name="QSPIRAL">      0.00000000      0.00000000      0.00000000</v>
    <i type="logical" name="LZEROZ"> F  </i>
   </separator>
   <separator name="electronic exchange-correlation" >
    <i type="logical" name="LASPH"> F  </i>
    <i type="logical" name="LMETAGGA"> F  </i>
   </separator>
   <separator name="electronic convergence" >
    <i type="int" name="NELM">   100</i>
    <i type="int" name="NELMDL">     0</i>
    <i type="int" name="NELMIN">     2</i>
    <i name="ENINI">    300.00000000</i>
    <separator name="electronic convergence detail" >
     <i type="logical" name="LDIAG"> T  </i>
     <i type="logical" name="LSUBROT"> F  </i>
     <i name="WEIMIN">      0.00100000</i>
     <i name="EBREAK">      0.00000022</i>
     <i name="DEPER">      0.30000000</i>
     <i type="int" name="NRMM">     4</i>
     <i name="TIME">      0.40000000</i>
    </separator>
   </separator>
   <separator name="electronic mixer" >
    <i name="AMIX">      0.40000000</i>
    <i name="BMIX">      1.00000000</i>
    <i name="AMIN">      0.10000000</i>
    <i name="AMIX_MAG">      1.60000000</i>
    <i name="BMIX_MAG">      1.00000000</i>
    <separator name="electronic mixer details" >
     <i type="int" name="IMIX">     4</i>
     <i type="logical" name="MIXFIRST"> F  </i>
     <i type="int" name="MAXMIX">   -45</i>
     <i name="WC">    100.00000000</i>
     <i type="int" name="INIMIX">     1</i>
     <i type="int" name="MIXPRE">     1</i>
     <i type="int" name="MREMOVE">     5</i>
    </separator>
   </separator>
   <separator name="electronic dipolcorrection" >
    <i type="logical" name="LDIPOL"> T  </i>
    <i type="logical" name="LMONO"> F  </i>
    <i type="int" name="IDIPOL">     3</i>
    <i name="EPSILON">      1.00000000</i>
    <v name="DIPOL">   -100.00000000   -100.00000000   -100.00000000</v>
    <i name="EFIELD">      0.00000000</i>
   </separator>
  </separator>
  <separator name="grids" >
   <i type="int" name="NGX">    16</i>
   <i type="int" name="NGY">    16</i>
   <i type="int" name="NGZ">   140</i>
   <i type="int" name="NGXF">    32</i>
   <i type="int" name="NGYF">    32</i>
   <i type="int" name="NGZF">   280</i>
   <i type="logical" name="ADDGRID"> F  </i>
  </separator>
  <separator name="ionic" >
   <i type="int" name="NSW">    99</i>
   <i type="int" name="IBRION">     2</i>
   <i type="int" name="ISIF">     0</i>
   <i name="PSTRESS">      0.00000000</i>
   <i name="EDIFFG">     -0.01000000</i>
   <i type="int" name="NFREE">     1</i>
   <i name="POTIM">      0.50000000</i>
   <i name="SMASS">     -3.00000000</i>
   <i name="SCALEE">      1.00000000</i>
  </separator>
  <separator name="ionic md" >
   <i name="TEBEG">      0.00010000</i>
   <i name="TEEND">      0.00010000</i>
   <i type="int" name="NBLOCK">     1</i>
   <i type="int" name="KBLOCK">    99</i>
   <i type="int" name="NPACO">   256</i>
   <i name="APACO">     16.00000000</i>
  </separator>
  <separator name="symmetry" >
   <i type="int" name="ISYM">     2</i>
   <i name="SYMPREC">      0.00001000</i>
  </separator>
  <separator name="dos" >
   <i type="logical" name="LORBIT"> F  </i>
   <v name="RWIGS">     -1.00000000     -1.00000000     -1.00000000</v>
   <i type="int" name="NEDOS">   301</i>
   <i name="EMIN">     10.00000000</i>
   <i name="EMAX">    -10.00000000</i>
   <i name="EFERMI">      0.00000000</i>
  </separator>
  <separator name="writing" >
   <i type="int" name="NWRITE">     2</i>
   <i type="logical" name="LWAVE"> F  </i>
   <i type="logical" name="LCHARG"> T  </i>
   <i type="logical" name="LPARD"> F  </i>
   <i type="logical" name="LVTOT"> T  </i>
   <i type="logical" name="LVHAR"> F  </i>
   <i type="logical" name="LELF"> F  </i>
   <i type="logical" name="LOPTICS"> F  </i>
   <v name="STM">      0.00000000      0.00000000      0.00000000      0.00000000      0.00000000      0.00000000      0.00000000</v>
  </separator>
  <separator name="performance" >
   <i type="int" name="NPAR">     2</i>
   <i type="int" name="NSIM">     4</i>
   <i type="int" name="NBLK">    -1</i>
   <i type="logical" name="LPLANE"> T  </i>
   <i type="logical" name="LSCALAPACK"> T  </i>
   <i type="logical" name="LSCAAWARE"> F  </i>
   <i type="logical" name="LSCALU"> F  </i>
   <i type="logical" name="LASYNC"> F  </i>
   <i type="logical" name="LORBITALREAL"> F  </i>
  </separator>
  <separator name="miscellaneous" >
   <i type="int" name="IDIOT">     3</i>
   <i type="logical" name="LMUSIC"> F  </i>
   <v name="POMASS">     87.62000000     55.84700000     16.00000000</v>
   <v name="DARWINR">      0.00000000      0.00000000      0.00000000</v>
   <v name="DARWINV">      1.00000000      1.00000000      1.00000000</v>
   <i type="logical" name="LCORR"> T  </i>
  </separator>
  <i type="logical" name="GGA_COMPAT"> T  </i>
  <i type="logical" name="LBERRY"> F  </i>
  <i type="int" name="ICORELEVEL">     0</i>
  <i type="logical" name="LDAU"> T  </i>
  <v type="int" name="LDAUTYPE">     2</v>
  <v type="int" name="LDAUL">     0</v>
  <v name="LDAUU">      0.00000000</v>
  <v name="LDAUJ">      0.00000000</v>
  <i type="int" name="LDAUPRINT">     1</i>
  <i type="int" name="I_CONSTRAINED_M">     0</i>
  <separator name="electronic exchange-correlation" >
   <i type="string" name="GGA">--</i>
   <i type="int" name="VOSKOWN">     0</i>
   <i type="logical" name="LHFCALC"> F  </i>
   <i type="string" name="PRECFOCK"></i>
   <i type="logical" name="LSYMGRAD"> F  </i>
   <i type="logical" name="LHFONE"> F  </i>
   <i type="logical" name="LRHFCALC"> F  </i>
   <i type="logical" name="LTHOMAS"> F  </i>
   <i type="logical" name="LMODELHF"> F  </i>
   <i name="ENCUT4O">     -1.00000000</i>
   <i type="int" name="EXXOEP">     0</i>
   <i type="int" name="FOURORBIT">     0</i>
   <i name="AEXX">      0.00000000</i>
   <i name="HFALPHA">      0.00000000</i>
   <i name="MCALPHA">      0.00000000</i>
   <i name="ALDAX">      1.00000000</i>
   <i name="AGGAX">      1.00000000</i>
   <i name="ALDAC">      1.00000000</i>
   <i name="AGGAC">      1.00000000</i>
   <i type="int" name="NKREDX">     1</i>
   <i type="int" name="NKREDY">     1</i>
   <i type="int" name="NKREDZ">     1</i>
   <i type="logical" name="SHIFTRED"> F  </i>
   <i type="logical" name="ODDONLY"> F  </i>
   <i type="logical" name="EVENONLY"> F  </i>
   <i type="int" name="LMAXFOCK">     0</i>
   <i type="int" name="NMAXFOCKAE">     0</i>
   <i type="logical" name="LFOCKAEDFT"> F  </i>
   <i name="HFSCREEN">      0.00000000</i>
   <i name="HFSCREENC">      0.00000000</i>
   <i type="int" name="NBANDSGWLOW">     0</i>
  </separator>
  <separator name="vdW DFT" >
   <i type="logical" name="LUSE_VDW"> F  </i>
   <i name="Zab_VDW">     -0.84910000</i>
   <i name="PARAM1">      0.12340000</i>
   <i name="PARAM2">      1.00000000</i>
   <i name="PARAM3">      0.00000000</i>
  </separator>
  <separator name="model GW" >
   <i type="int" name="MODEL_GW">     0</i>
   <i name="MODEL_EPS0">     13.18530081</i>
   <i name="MODEL_ALPHA">      1.00000000</i>
  </separator>
  <separator name="linear response parameters" >
   <i type="logical" name="LEPSILON"> F  </i>
   <i type="logical" name="LRPA"> F  </i>
   <i type="logical" name="LNABLA"> F  </i>
   <i type="logical" name="LVEL"> F  </i>
   <i type="int" name="KINTER">     0</i>
   <i name="CSHIFT">      0.10000000</i>
   <i name="OMEGAMAX">     -1.00000000</i>
   <i name="DEG_THRESHOLD">      0.00200000</i>
  </separator>
  <separator name="orbital magnetization" >
   <i type="logical" name="NUCIND"> F  </i>
   <v name="MAGPOS">      0.00000000      0.00000000      0.00000000</v>
   <i type="logical" name="LNICSALL"> T  </i>
   <i type="logical" name="ORBITALMAG"> F  </i>
   <i type="logical" name="LMAGBLOCH"> F  </i>
   <i type="logical" name="LCHIMAG"> F  </i>
   <i type="logical" name="LGAUGE"> T  </i>
   <i type="int" name="MAGATOM">     0</i>
   <v name="MAGDIPOL">      0.00000000      0.00000000      0.00000000</v>
   <v name="AVECCONST">      0.00000000      0.00000000      0.00000000</v>
  </separator>
  <separator name="response functions" >
   <i type="logical" name="LADDER"> F  </i>
   <i type="logical" name="LFXC"> F  </i>
   <i type="logical" name="LHARTREE"> T  </i>
   <i type="int" name="IBSE">     0</i>
   <v type="int" name="KPOINT">    -1     0     0     0</v>
   <i type="logical" name="LTCTE"> F  </i>
   <i type="logical" name="LTETE"> F  </i>
   <i type="logical" name="LTRIPLET"> F  </i>
   <i type="logical" name="LFXCEPS"> F  </i>
   <i type="logical" name="LFXHEG"> F  </i>
   <i type="int" name="NATURALO">     0</i>
   <i type="logical" name="L2ORDER"> F  </i>
   <i type="logical" name="LUSEW"> F  </i>
   <i name="ENCUTGW">     -2.00000000</i>
   <i name="ENCUTGWSOFT">     -2.00000000</i>
   <i name="ENCUTLF">     -1.00000000</i>
   <i type="int" name="LMAXMP2">    -1</i>
   <i name="SCISSOR">      0.00000000</i>
   <i type="int" name="NOMEGA">     0</i>
   <i type="int" name="NOMEGAR">     0</i>
   <i type="int" name="NBANDSGW">    -1</i>
   <i type="int" name="NBANDSO">    -1</i>
   <i type="int" name="NBANDSV">    -1</i>
   <i type="int" name="NELM">   100</i>
   <i type="int" name="NELMHF">     1</i>
   <i type="int" name="DIM">     3</i>
   <i type="int" name="ANTIRES">     0</i>
   <i name="OMEGAMAX">    -30.00000000</i>
   <i name="OMEGAMIN">    -30.00000000</i>
   <i name="OMEGATL">   -200.00000000</i>
   <i type="int" name="OMEGAGRID">     0</i>
   <i name="CSHIFT">     -0.10000000</i>
   <i type="logical" name="SELFENERGY"> F  </i>
   <i type="logical" name="LSPECTRAL"> F  </i>
   <i type="logical" name="LSPECTRALGW"> F  </i>
   <i type="logical" name="LSINGLES"> F  </i>
   <i type="logical" name="LFERMIGW"> F  </i>
   <i type="logical" name="ODDONLYGW"> F  </i>
   <i type="logical" name="EVENONLYGW"> F  </i>
   <i type="int" name="NKREDLFX">     1</i>
   <i type="int" name="NKREDLFY">     1</i>
   <i type="int" name="NKREDLFZ">     1</i>
   <i type="int" name="MAXMEM">  1800</i>
   <i type="int" name="TELESCOPE">     0</i>
   <i type="int" name="TAUPAR">     1</i>
   <i type="int" name="OMEGAPAR">    -1</i>
   <i name="LAMBDA">      1.00000000</i>
  </separator>
  <separator name="External order field" >
   <i name="OFIELD_KAPPA">      0.00000000</i>
   <v name="OFIELD_K">      0.00000000      0.00000000      0.00000000</v>
   <i name="OFIELD_Q6_NEAR">      0.00000000</i>
   <i name="OFIELD_Q6_FAR">      0.00000000</i>
   <i name="OFIELD_A">      0.00000000</i>
  </separator>
  <separator name="solvation model" >
   <i type="logical" name="LSOL"> F  </i>
  </separator>
 </parameters>
 <atominfo>
  <atoms>      21 </atoms>
  <types>       3 </types>
  <array name="atoms" >
   <dimension dim="1">ion</dimension>
   <field type="string">element</field>
   <field type="int">atomtype</field>
   <set>
    <rc><c>Sr</c><c>   1</c></rc>
    <rc><c>Sr</c><c>   1</c></rc>
    <rc><c>Sr</c><c>   1</c></rc>
    <rc><c>Sr</c><c>   1</c></rc>
    <rc><c>Fe</c><c>   2</c></rc>
    <rc><c>Fe</c><c>   2</c></rc>
    <rc><c>Fe</c><c>   2</c></rc>
    <rc><c>Fe</c><c>   2</c></rc>
    <rc><c>O </c><c>   3</c></rc>
    <rc><c>O </c><c>   3</c></rc>
    <rc><c>O </c><c>   3</c></rc>
    <rc><c>O </c><c>   3</c></rc>
    <rc><c>O </c><c>   3</c></rc>
    <rc><c>O </c><c>   3</c></rc>
    <rc><c>O </c><c>   3</c></rc>
    <rc><c>O </c><c>   3</c></rc>
    <rc><c>O </c><c>   3</c></rc>
    <rc><c>O </c><c>   3</c></rc>
    <rc><c>O </c><c>   3</c></rc>
    <rc><c>O </c><c>   3</c></rc>
    <rc><c>O </c><c>   3</c></rc>
   </set>
  </array>
  <array name="atomtypes" >
   <dimension dim="1">type</dimension>
   <field type="int">atomspertype</field>
   <field type="string">element</field>
   <field>mass</field>
   <field>valence</field>
   <field type="string">pseudopotential</field>
   <set>
    <rc><c>   4</c><c>Sr</c><c>     87.62000000</c><c>     10.00000000</c><c>  PAW Sr                                </c></rc>
    <rc><c>   4</c><c>Fe</c><c>     55.84700000</c><c>     14.00000000</c><c>  PAW Fe                                </c></rc>
    <rc><c>  13</c><c>O </c><c>     16.00000000</c><c>      6.00000000</c><c>  PAW O_s                               </c></rc>
   </set>
  </array>
 </atominfo>
 <structure name="initialpos" >
  <crystal>
   <varray name="basis" >
    <v>       3.88680817       0.00000000       0.00000000 </v>
    <v>       0.00000000       3.88680817       0.00000000 </v>
    <v>       0.00000000       0.00000000      30.54723268 </v>
   </varray>
   <i name="volume">    461.48552838 </i>
   <varray name="rec_basis" >
    <v>       0.25728051       0.00000000       0.00000000 </v>
    <v>       0.00000000       0.25728051       0.00000000 </v>
    <v>       0.00000000       0.00000000       0.03273619 </v>
   </varray>
  </crystal>
  <varray name="positions" >
   <v>       0.50000000       0.50000000       0.06361964 </v>
   <v>       0.50000000       0.50000000       0.19085893 </v>
   <v>       0.50000000       0.50000000       0.31729296 </v>
   <v>       0.50000000       0.50000000       0.44997122 </v>
   <v>       0.00000000       0.00000000       0.00000000 </v>
   <v>       0.00000000       0.00000000       0.12723929 </v>
   <v>       0.00000000       0.00000000       0.25495084 </v>
   <v>       0.00000000       0.00000000       0.38379506 </v>
   <v>       0.50000000       0.00000000       0.00000000 </v>
   <v>       0.50000000       0.00000000       0.12723929 </v>
   <v>       0.50000000       0.00000000       0.25677013 </v>
   <v>       0.50000000       0.00000000       0.39519114 </v>
   <v>       0.00000000       0.50000000       0.00000000 </v>
   <v>       0.00000000       0.50000000       0.12723929 </v>
   <v>       0.00000000       0.50000000       0.25677013 </v>
   <v>       0.00000000       0.50000000       0.39519114 </v>
   <v>       0.00000000       0.00000000       0.06361964 </v>
   <v>       0.00000000       0.00000000       0.19085893 </v>
   <v>       0.00000000       0.00000000       0.32205375 </v>
   <v>       0.00000000       0.00000000       0.46722049 </v>
   <v>       0.00000000       0.00000000       0.51388076 </v>
  </varray>
  <varray name="selective"  type="logical" >
   <v type="logical" >  F  F  F </v>
   <v type="logical" >  F  F  F </v>
   <v type="logical" >  T  T  T </v>
   <v type="logical" >  T  T  T </v>
   <v type="logical" >  F  F  F </v>
   <v type="logical" >  F  F  F </v>
   <v type="logical" >  T  T  T </v>
   <v type="logical" >  T  T  T </v>
   <v type="logical" >  F  F  F </v>
   <v type="logical" >  F  F  F </v>
   <v type="logical" >  T  T  T </v>
   <v type="logical" >  T  T  T </v>
   <v type="logical" >  F  F  F </v>
   <v type="logical" >  F  F  F </v>
   <v type="logical" >  T  T  T </v>
   <v type="logical" >  T  T  T </v>
   <v type="logical" >  F  F  F </v>
   <v type="logical" >  F  F  F </v>
   <v type="logical" >  T  T  T </v>
   <v type="logical" >  T  T  T </v>
   <v type="logical" >  T  T  T </v>
  </varray>
  <nose>
   <v>      -3.00000000       0.00000000       0.00010000       0.00010000 </v>
  </nose>
 </structure>
 <calculation>
  <scstep>
   <time name="dav">    4.41    4.42</time>
   <time name="total">    4.83    4.86</time>
   <dipole>
    <v name="dipole">      0.00000000       0.00000000       0.00232609 </v>
    <i name="Tr[quadrupol]">   -495.57830409 </i>
    <i name="Echarged">      0.00000000 </i>
    <i name="Edipol_quadrupol">      0.00000000 </i>
    <i name="Eion">      0.00000000 </i>
   </dipole>
   <energy>
    <i name="alphaZ">    627.54992591 </i>
    <i name="ewald">  84960.73770055 </i>
    <i name="hartreedc">-102069.66076454 </i>
    <i name="XCdc">    792.56660011 </i>
    <i name="pawpsdc">  14160.74468759 </i>
    <i name="pawaedc"> -14513.04159730 </i>
    <i name="eentropy">     -0.01155554 </i>
    <i name="bandstr">  -1386.23089965 </i>
    <i name="atom">  18840.78653830 </i>
    <i name="e_fr_energy">   1413.44063544 </i>
    <i name="e_wo_entrp">   1413.45219098 </i>
    <i name="e_0_energy">   1413.44641321 </i>
   </energy>
  </scstep>
  <scstep>
   <time name="dav">    4.26    4.26</time>
   <time name="total">    4.26    4.26</time>
   <dipole>
    <v name="dipole">      0.00000000       0.00000000       0.00232609 </v>
    <i name="Tr[quadrupol]">   -495.57830409 </i>
    <i name="Echarged">      0.00000000 </i>
    <i name="Edipol_quadrupol">      0.00000000 </i>
    <i name="Eion">      0.00000000 </i>
   </dipole>
   <energy>
    <i name="e_fr_energy">     -3.60315765 </i>
    <i name="e_wo_entrp">     -3.58803992 </i>
    <i name="e_0_energy">     -3.59559879 </i>
   </energy>
  </scstep>
  <scstep>
   <time name="dav">    4.60    4.60</time>
   <time name="total">    4.60    4.60</time>
   <dipole>
    <v name="dipole">      0.00000000       0.00000000       0.00232609 </v>
    <i name="Tr[quadrupol]">   -495.57830409 </i>
    <i name="Echarged">      0.00000000 </i>
    <i name="Edipol_quadrupol">      0.00000000 </i>
    <i name="Eion">      0.00000000 </i>
   </dipole>
   <energy>
    <i name="e_fr_energy">   -122.75894979 </i>
    <i name="e_wo_entrp">   -122.73392529 </i>
    <i name="e_0_energy">   -122.74643754 </i>
   </energy>
  </scstep>
  <scstep>
   <time name="dav">    5.71    5.71</time>
   <time name="total">    5.71    5.72</time>
   <dipole>
    <v name="dipole">      0.00000000       0.00000000       0.00232609 </v>
    <i name="Tr[quadrupol]">   -495.57830409 </i>
    <i name="Echarged">      0.00000000 </i>
    <i name="Edipol_quadrupol">      0.00000000 </i>
    <i name="Eion">      0.00000000 </i>
   </dipole>
   <energy>
    <i name="e_fr_energy">   -128.13064579 </i>
    <i name="e_wo_entrp">   -128.10137895 </i>
    <i name="e_0_energy">   -128.11601237 </i>
   </energy>
  </scstep>
  <scstep>
   <time name="dav">    6.31    6.31</time>
   <time name="total">    6.47    6.48</time>
   <dipole>
    <v name="dipole">      0.00000000       0.00000000       0.00232609 </v>
    <i name="Tr[quadrupol]">   -495.57830409 </i>
    <i name="Echarged">      0.00000000 </i>
    <i name="Edipol_quadrupol">      0.00000000 </i>
    <i name="Eion">      0.00000000 </i>
   </dipole>
   <energy>
    <i name="e_fr_energy">   -128.55901389 </i>
    <i name="e_wo_entrp">   -128.52944842 </i>
    <i name="e_0_energy">   -128.54423115 </i>
   </energy>
  </scstep>
  <scstep>
   <time name="diag">    0.60    0.60</time>
   <time name="diis">    2.10    2.11</time>
   <time name="orth">    0.14    0.14</time>
   <time name="total">    3.42    3.42</time>
   <dipole>
    <v name="dipole">      0.00000000       0.00000000      -0.01099980 </v>
    <i name="Tr[quadrupol]">   -495.63577320 </i>
    <i name="Echarged">      0.00000000 </i>
    <i name="Edipol_quadrupol">      0.00000000 </i>
    <i name="Eion">      0.00000000 </i>
   </dipole>
   <energy>
    <i name="e_fr_energy">   -128.63222901 </i>
    <i name="e_wo_entrp">   -128.60552022 </i>
    <i name="e_0_energy">   -128.61887462 </i>
   </energy>
  </scstep>
  <scstep>
   <time name="diag">    0.60    0.60</time>
   <time name="diis">    2.18    2.18</time>
   <time name="orth">    0.14    0.14</time>
   <time name="total">    3.50    3.50</time>
   <dipole>
    <v name="dipole">      0.00000000       0.00000000       0.00301156 </v>
    <i name="Tr[quadrupol]">   -495.51667095 </i>
    <i name="Echarged">      0.00000000 </i>
    <i name="Edipol_quadrupol">      0.00000000 </i>
    <i name="Eion">      0.00000000 </i>
   </dipole>
   <energy>
    <i name="e_fr_energy">   -128.53587715 </i>
    <i name="e_wo_entrp">   -128.50731366 </i>
    <i name="e_0_energy">   -128.52159541 </i>
   </energy>
  </scstep>
  <scstep>
   <time name="diag">    0.60    0.60</time>
   <time name="diis">    1.98    1.98</time>
   <time name="orth">    0.14    0.14</time>
   <time name="total">    3.29    3.29</time>
   <dipole>
    <v name="dipole">      0.00000000       0.00000000       0.00100071 </v>
    <i name="Tr[quadrupol]">   -495.55857034 </i>
    <i name="Echarged">      0.00000000 </i>
    <i name="Edipol_quadrupol">      0.00000000 </i>
    <i name="Eion">      0.00000000 </i>
   </dipole>
   <energy>
    <i name="e_fr_energy">   -128.56483824 </i>
    <i name="e_wo_entrp">   -128.53508917 </i>
    <i name="e_0_energy">   -128.54996371 </i>
   </energy>
  </scstep>
  <scstep>
   <time name="diag">    0.60    0.60</time>
   <time name="diis">    1.84    1.84</time>
   <time name="orth">    0.14    0.14</time>
   <time name="total">    3.16    3.16</time>
   <dipole>
    <v name="dipole">      0.00000000       0.00000000       0.00265622 </v>
    <i name="Tr[quadrupol]">   -495.58881363 </i>
    <i name="Echarged">      0.00000000 </i>
    <i name="Edipol_quadrupol">      0.00000000 </i>
    <i name="Eion">      0.00000000 </i>
   </dipole>
   <energy>
    <i name="e_fr_energy">   -128.56496970 </i>
    <i name="e_wo_entrp">   -128.53604505 </i>
    <i name="e_0_energy">   -128.55050737 </i>
   </energy>
  </scstep>
  <scstep>
   <time name="diag">    0.60    0.60</time>
   <time name="diis">    1.58    1.58</time>
   <time name="orth">    0.14    0.14</time>
   <time name="total">    2.89    2.90</time>
   <dipole>
    <v name="dipole">      0.00000000       0.00000000       0.00192311 </v>
    <i name="Tr[quadrupol]">   -495.58624397 </i>
    <i name="Echarged">      0.00000000 </i>
    <i name="Edipol_quadrupol">      0.00000000 </i>
    <i name="Eion">      0.00000000 </i>
   </dipole>
   <energy>
    <i name="e_fr_energy">   -128.56523886 </i>
    <i name="e_wo_entrp">   -128.53455346 </i>
    <i name="e_0_energy">   -128.54989616 </i>
   </energy>
  </scstep>
  <scstep>
   <time name="diag">    0.60    0.60</time>
   <time name="diis">    1.38    1.38</time>
   <time name="orth">    0.14    0.14</time>
   <time name="total">    2.54    2.55</time>
   <dipole>
    <v name="dipole">      0.00000000       0.00000000       0.00195926 </v>
    <i name="Tr[quadrupol]">   -495.58269405 </i>
    <i name="Echarged">      0.00000000 </i>
    <i name="Edipol_quadrupol">      0.00000000 </i>
    <i name="Eion">      0.00000000 </i>
   </dipole>
   <energy>
    <i name="alphaZ">    627.65595196 </i>
    <i name="ewald">  84960.73770055 </i>
    <i name="hartreedc">-102069.65843198 </i>
    <i name="XCdc">    792.56189848 </i>
    <i name="pawpsdc">  14160.80161103 </i>
    <i name="pawaedc"> -14513.19361521 </i>
    <i name="eentropy">     -0.03056249 </i>
    <i name="bandstr">  -2928.22640495 </i>
    <i name="atom">  18840.78653830 </i>
    <i name="e_fr_energy">   -128.56531430 </i>
    <i name="e_wo_entrp">   -128.53475180 </i>
    <i name="e_0_energy">   -128.55003305 </i>
   </energy>
  </scstep>
  <structure>
   <crystal>
    <varray name="basis" >
     <v>       3.88680817       0.00000000       0.00000000 </v>
     <v>       0.00000000       3.88680817       0.00000000 </v>
     <v>       0.00000000       0.00000000      30.54723268 </v>
    </varray>
    <i name="volume">    461.48552838 </i>
    <varray name="rec_basis" >
     <v>       0.25728051       0.00000000       0.00000000 </v>
     <v>       0.00000000       0.25728051       0.00000000 </v>
     <v>       0.00000000       0.00000000       0.03273619 </v>
    </varray>
   </crystal>
   <varray name="positions" >
    <v>       0.50000000       0.50000000       0.06361964 </v>
    <v>       0.50000000       0.50000000       0.19085893 </v>
    <v>       0.50000000       0.50000000       0.31729296 </v>
    <v>       0.50000000       0.50000000       0.44997122 </v>
    <v>       0.00000000       0.00000000       0.00000000 </v>
    <v>       0.00000000       0.00000000       0.12723929 </v>
    <v>       0.00000000       0.00000000       0.25495084 </v>
    <v>       0.00000000       0.00000000       0.38379506 </v>
    <v>       0.50000000       0.00000000       0.00000000 </v>
    <v>       0.50000000       0.00000000       0.12723929 </v>
    <v>       0.50000000       0.00000000       0.25677013 </v>
    <v>       0.50000000       0.00000000       0.39519114 </v>
    <v>       0.00000000       0.50000000       0.00000000 </v>
    <v>       0.00000000       0.50000000       0.12723929 </v>
    <v>       0.00000000       0.50000000       0.25677013 </v>
    <v>       0.00000000       0.50000000       0.39519114 </v>
    <v>       0.00000000       0.00000000       0.06361964 </v>
    <v>       0.00000000       0.00000000       0.19085893 </v>
    <v>       0.00000000       0.00000000       0.32205375 </v>
    <v>       0.00000000       0.00000000       0.46722049 </v>
    <v>       0.00000000       0.00000000       0.51388076 </v>
   </varray>
  </structure>
  <varray name="forces" >
   <v>       0.00000000       0.00000000      -0.33088628 </v>
   <v>       0.00000000       0.00000000      -0.02245846 </v>
   <v>       0.00000000       0.00000000      -0.03553897 </v>
   <v>       0.00000000       0.00000000      -0.22520703 </v>
   <v>       0.00000000       0.00000000       0.25218622 </v>
   <v>       0.00000000       0.00000000      -0.13663535 </v>
   <v>       0.00000000       0.00000000      -0.03577332 </v>
   <v>       0.00000000       0.00000000      -0.07433875 </v>
   <v>       0.00000000       0.00000000      -0.27007546 </v>
   <v>       0.00000000       0.00000000       0.05936135 </v>
   <v>       0.00000000       0.00000000       0.00593037 </v>
   <v>       0.00000000       0.00000000       0.08568434 </v>
   <v>       0.00000000       0.00000000      -0.27007546 </v>
   <v>       0.00000000       0.00000000       0.05936135 </v>
   <v>       0.00000000       0.00000000       0.00593037 </v>
   <v>       0.00000000       0.00000000       0.08568434 </v>
   <v>       0.00000000       0.00000000       0.35369040 </v>
   <v>       0.00000000       0.00000000       0.31107218 </v>
   <v>       0.00000000       0.00000000       0.04834563 </v>
   <v>       0.00000000       0.00000000       0.09187049 </v>
   <v>       0.00000000       0.00000000       0.04187206 </v>
  </varray>
  <energy>
   <i name="e_fr_energy">   -128.56531430 </i>
   <i name="e_wo_entrp">   -128.55003305 </i>
   <i name="e_0_energy">     -0.03056249 </i>
  </energy>
  <time name="totalsc">   47.42   47.59</time>
 </calculation>
 <calculation>
  <scstep>
   <time name="dav">    4.73    4.74</time>
   <time name="total">    5.31    5.31</time>
   <dipole>
    <v name="dipole">      0.00000000       0.00000000       0.00205017 </v>
    <i name="Tr[quadrupol]">   -495.58707389 </i>
    <i name="Echarged">      0.00000000 </i>
    <i name="Edipol_quadrupol">      0.00000000 </i>
    <i name="Eion">      0.00000000 </i>
   </dipole>
   <energy>
    <i name="alphaZ">    627.71653804 </i>
    <i name="ewald">  84988.72003214 </i>
    <i name="hartreedc">-102097.26137410 </i>
    <i name="XCdc">    792.58330233 </i>
    <i name="pawpsdc">  14160.79521765 </i>
    <i name="pawaedc"> -14513.18138805 </i>
    <i name="eentropy">     -0.02573035 </i>
    <i name="bandstr">  -2928.69742124 </i>
    <i name="atom">  18840.78653830 </i>
    <i name="e_fr_energy">   -128.56428527 </i>
    <i name="e_wo_entrp">   -128.53855492 </i>
    <i name="e_0_energy">   -128.55142009 </i>
   </energy>
  </scstep>
  <scstep>
   <time name="diag">    0.60    0.60</time>
   <time name="diis">    1.79    1.79</time>
   <time name="orth">    0.14    0.14</time>
   <time name="total">    3.10    3.10</time>
   <dipole>
    <v name="dipole">      0.00000000       0.00000000      -0.10478414 </v>
    <i name="Tr[quadrupol]">   -495.81541777 </i>
    <i name="Echarged">      0.00000000 </i>
    <i name="Edipol_quadrupol">      0.00000000 </i>
    <i name="Eion">      0.00000000 </i>
   </dipole>
   <energy>
    <i name="e_fr_energy">   -129.81299460 </i>
    <i name="e_wo_entrp">   -129.79969949 </i>
    <i name="e_0_energy">   -129.80634705 </i>
   </energy>
  </scstep>
  <scstep>
   <time name="diag">    0.60    0.60</time>
   <time name="diis">    1.67    1.67</time>
   <time name="orth">    0.14    0.14</time>
   <time name="total">    2.98    2.99</time>
   <dipole>
    <v name="dipole">      0.00000000       0.00000000       0.01105992 </v>
    <i name="Tr[quadrupol]">   -495.69495347 </i>
    <i name="Echarged">      0.00000000 </i>
    <i name="Edipol_quadrupol">      0.00000000 </i>
    <i name="Eion">      0.00000000 </i>
   </dipole>
   <energy>
    <i name="e_fr_energy">   -128.53578113 </i>
    <i name="e_wo_entrp">   -128.51271229 </i>
    <i name="e_0_energy">   -128.52424671 </i>
   </energy>
  </scstep>
  <scstep>
   <time name="diag">    0.60    0.60</time>
   <time name="diis">    1.64    1.64</time>
   <time name="orth">    0.14    0.14</time>
   <time name="total">    2.95    2.95</time>
   <dipole>
    <v name="dipole">      0.00000000       0.00000000       0.00183356 </v>
    <i name="Tr[quadrupol]">   -495.64595397 </i>
    <i name="Echarged">      0.00000000 </i>
    <i name="Edipol_quadrupol">      0.00000000 </i>
    <i name="Eion">      0.00000000 </i>
   </dipole>
   <energy>
    <i name="e_fr_energy">   -128.56761800 </i>
    <i name="e_wo_entrp">   -128.53901940 </i>
    <i name="e_0_energy">   -128.55331870 </i>
   </energy>
  </scstep>
  <scstep>
   <time name="diag">    0.60    0.60</time>
   <time name="diis">    1.59    1.59</time>
   <time name="orth">    0.14    0.14</time>
   <time name="total">    2.90    2.91</time>
   <dipole>
    <v name="dipole">      0.00000000       0.00000000      -0.00272469 </v>
    <i name="Tr[quadrupol]">   -495.60604691 </i>
    <i name="Echarged">      0.00000000 </i>
    <i name="Edipol_quadrupol">      0.00000000 </i>
    <i name="Eion">      0.00000000 </i>
   </dipole>
   <energy>
    <i name="e_fr_energy">   -128.57066190 </i>
    <i name="e_wo_entrp">   -128.53512654 </i>
    <i name="e_0_energy">   -128.55289422 </i>
   </energy>
  </scstep>
  <scstep>
   <time name="diag">    0.60    0.60</time>
   <time name="diis">    1.37    1.37</time>
   <time name="orth">    0.14    0.14</time>
   <time name="total">    2.68    2.69</time>
   <dipole>
    <v name="dipole">      0.00000000       0.00000000      -0.00147181 </v>
    <i name="Tr[quadrupol]">   -495.54914377 </i>
    <i name="Echarged">      0.00000000 </i>
    <i name="Edipol_quadrupol">      0.00000000 </i>
    <i name="Eion">      0.00000000 </i>
   </dipole>
   <energy>
    <i name="e_fr_energy">   -128.56709075 </i>
    <i name="e_wo_entrp">   -128.53513811 </i>
    <i name="e_0_energy">   -128.55111443 </i>
   </energy>
  </scstep>
  <scstep>
   <time name="diag">    0.60    0.60</time>
   <time name="diis">    1.40    1.40</time>
   <time name="orth">    0.14    0.14</time>
   <time name="total">    2.71    2.71</time>
   <dipole>
    <v name="dipole">      0.00000000       0.00000000      -0.00184364 </v>
    <i name="Tr[quadrupol]">   -495.60208566 </i>
    <i name="Echarged">      0.00000000 </i>
    <i name="Edipol_quadrupol">      0.00000000 </i>
    <i name="Eion">      0.00000000 </i>
   </dipole>
   <energy>
    <i name="e_fr_energy">   -128.57057319 </i>
    <i name="e_wo_entrp">   -128.53460619 </i>
    <i name="e_0_energy">   -128.55258969 </i>
   </energy>
  </scstep>
  <scstep>
   <time name="diag">    0.60    0.60</time>
   <time name="diis">    1.29    1.30</time>
   <time name="orth">    0.14    0.14</time>
   <time name="total">    2.61    2.61</time>
   <dipole>
    <v name="dipole">      0.00000000       0.00000000       0.00068630 </v>
    <i name="Tr[quadrupol]">   -495.59178076 </i>
    <i name="Echarged">      0.00000000 </i>
    <i name="Edipol_quadrupol">      0.00000000 </i>
    <i name="Eion">      0.00000000 </i>
   </dipole>
   <energy>
    <i name="e_fr_energy">   -128.56608006 </i>
    <i name="e_wo_entrp">   -128.53473020 </i>
    <i name="e_0_energy">   -128.55040513 </i>
   </energy>
  </scstep>
  <scstep>
   <time name="diag">    0.60    0.60</time>
   <time name="diis">    1.22    1.22</time>
   <time name="orth">    0.14    0.14</time>
   <time name="total">    2.53    2.54</time>
   <dipole>
    <v name="dipole">      0.00000000       0.00000000       0.00096428 </v>
    <i name="Tr[quadrupol]">   -495.59109363 </i>
    <i name="Echarged">      0.00000000 </i>
    <i name="Edipol_quadrupol">      0.00000000 </i>
    <i name="Eion">      0.00000000 </i>
   </dipole>
   <energy>
    <i name="e_fr_energy">   -128.56812932 </i>
    <i name="e_wo_entrp">   -128.53699270 </i>
    <i name="e_0_energy">   -128.55256101 </i>
   </energy>
  </scstep>
  <scstep>
   <time name="diag">    0.60    0.60</time>
   <time name="diis">    1.13    1.13</time>
   <time name="orth">    0.14    0.14</time>
   <time name="total">    2.45    2.45</time>
   <dipole>
    <v name="dipole">      0.00000000       0.00000000       0.00186056 </v>
    <i name="Tr[quadrupol]">   -495.58547706 </i>
    <i name="Echarged">      0.00000000 </i>
    <i name="Edipol_quadrupol">      0.00000000 </i>
    <i name="Eion">      0.00000000 </i>
   </dipole>
   <energy>
    <i name="e_fr_energy">   -128.56827887 </i>
    <i name="e_wo_entrp">   -128.53891659 </i>
    <i name="e_0_energy">   -128.55359773 </i>
   </energy>
  </scstep>
  <scstep>
   <time name="diag">    0.60    0.60</time>
   <time name="diis">    1.06    1.07</time>
   <time name="orth">    0.14    0.14</time>
   <time name="total">    2.38    2.38</time>
   <dipole>
    <v name="dipole">      0.00000000       0.00000000       0.00222733 </v>
    <i name="Tr[quadrupol]">   -495.58123044 </i>
    <i name="Echarged">      0.00000000 </i>
    <i name="Edipol_quadrupol">      0.00000000 </i>
    <i name="Eion">      0.00000000 </i>
   </dipole>
   <energy>
    <i name="e_fr_energy">   -128.56850467 </i>
    <i name="e_wo_entrp">   -128.53987685 </i>
    <i name="e_0_energy">   -128.55419076 </i>
   </energy>
  </scstep>
  <scstep>
   <time name="diag">    0.60    0.60</time>
   <time name="diis">    1.00    1.00</time>
   <time name="orth">    0.14    0.14</time>
   <time name="total">    2.16    2.17</time>
   <dipole>
    <v name="dipole">      0.00000000       0.00000000       0.00204843 </v>
    <i name="Tr[quadrupol]">   -495.58055515 </i>
    <i name="Echarged">      0.00000000 </i>
    <i name="Edipol_quadrupol">      0.00000000 </i>
    <i name="Eion">      0.00000000 </i>
   </dipole>
   <energy>
    <i name="alphaZ">    627.65550714 </i>
    <i name="ewald">  84988.72003214 </i>
    <i name="hartreedc">-102097.49859415 </i>
    <i name="XCdc">    792.60357245 </i>
    <i name="pawpsdc">  14162.66654701 </i>
    <i name="pawaedc"> -14514.95496924 </i>
    <i name="eentropy">     -0.02893249 </i>
    <i name="bandstr">  -2928.51825147 </i>
    <i name="atom">  18840.78653830 </i>
    <i name="e_fr_energy">   -128.56855032 </i>
    <i name="e_wo_entrp">   -128.53961783 </i>
    <i name="e_0_energy">   -128.55408407 </i>
   </energy>
  </scstep>
  <structure>
   <crystal>
    <varray name="basis" >
     <v>       3.88680817       0.00000000       0.00000000 </v>
     <v>       0.00000000       3.88680817       0.00000000 </v>
     <v>       0.00000000       0.00000000      30.54723268 </v>
    </varray>
    <i name="volume">    461.48552838 </i>
    <varray name="rec_basis" >
     <v>       0.25728051       0.00000000       0.00000000 </v>
     <v>       0.00000000       0.25728051       0.00000000 </v>
     <v>       0.00000000       0.00000000       0.03273619 </v>
    </varray>
   </crystal>
   <varray name="positions" >
    <v>       0.50000000       0.50000000       0.06361964 </v>
    <v>       0.50000000       0.50000000       0.19085893 </v>
    <v>       0.50000000       0.50000000       0.31723684 </v>
    <v>       0.50000000       0.50000000       0.44961556 </v>
    <v>       0.00000000       0.00000000       0.00000000 </v>
    <v>       0.00000000       0.00000000       0.12723929 </v>
    <v>       0.00000000       0.00000000       0.25489435 </v>
    <v>       0.00000000       0.00000000       0.38367766 </v>
    <v>       0.50000000       0.00000000       0.00000000 </v>
    <v>       0.50000000       0.00000000       0.12723929 </v>
    <v>       0.50000000       0.00000000       0.25677950 </v>
    <v>       0.50000000       0.00000000       0.39532646 </v>
    <v>       0.00000000       0.50000000       0.00000000 </v>
    <v>       0.00000000       0.50000000       0.12723929 </v>
    <v>       0.00000000       0.50000000       0.25677950 </v>
    <v>       0.00000000       0.50000000       0.39532646 </v>
    <v>       0.00000000       0.00000000       0.06361964 </v>
    <v>       0.00000000       0.00000000       0.19085893 </v>
    <v>       0.00000000       0.00000000       0.32213010 </v>
    <v>       0.00000000       0.00000000       0.46736558 </v>
    <v>       0.00000000       0.00000000       0.51394688 </v>
   </varray>
  </structure>
  <varray name="forces" >
   <v>       0.00000000       0.00000000      -0.33556279 </v>
   <v>       0.00000000       0.00000000      -0.04070171 </v>
   <v>       0.00000000       0.00000000      -0.05556191 </v>
   <v>       0.00000000       0.00000000      -0.18269070 </v>
   <v>       0.00000000       0.00000000       0.26229179 </v>
   <v>       0.00000000       0.00000000      -0.14638302 </v>
   <v>       0.00000000       0.00000000      -0.03194273 </v>
   <v>       0.00000000       0.00000000      -0.00887219 </v>
   <v>       0.00000000       0.00000000      -0.26812243 </v>
   <v>       0.00000000       0.00000000       0.06265501 </v>
   <v>       0.00000000       0.00000000       0.01241515 </v>
   <v>       0.00000000       0.00000000       0.04717216 </v>
   <v>       0.00000000       0.00000000      -0.26812243 </v>
   <v>       0.00000000       0.00000000       0.06265501 </v>
   <v>       0.00000000       0.00000000       0.01241515 </v>
   <v>       0.00000000       0.00000000       0.04717216 </v>
   <v>       0.00000000       0.00000000       0.34894136 </v>
   <v>       0.00000000       0.00000000       0.31578386 </v>
   <v>       0.00000000       0.00000000      -0.00882905 </v>
   <v>       0.00000000       0.00000000       0.14090854 </v>
   <v>       0.00000000       0.00000000       0.03437877 </v>
  </varray>
  <energy>
   <i name="e_fr_energy">   -128.56855032 </i>
   <i name="e_wo_entrp">   -128.55408407 </i>
   <i name="e_0_energy">     -0.02893249 </i>
  </energy>
  <time name="totalsc">   36.82   36.87</time>
 </calculation>
 <calculation>
  <scstep>
   <time name="dav">    4.52    4.52</time>
   <time name="total">    5.10    5.10</time>
   <dipole>
    <v name="dipole">      0.00000000       0.00000000       0.00195337 </v>
    <i name="Tr[quadrupol]">   -495.57659750 </i>
    <i name="Echarged">      0.00000000 </i>
    <i name="Edipol_quadrupol">      0.00000000 </i>
    <i name="Eion">      0.00000000 </i>
   </dipole>
   <energy>
    <i name="alphaZ">    627.62719618 </i>
    <i name="ewald">  85072.58831163 </i>
    <i name="hartreedc">-102180.20340446 </i>
    <i name="XCdc">    792.67103960 </i>
    <i name="pawpsdc">  14162.69482993 </i>
    <i name="pawaedc"> -14514.97931733 </i>
    <i name="eentropy">     -0.01722064 </i>
    <i name="bandstr">  -2929.70399399 </i>
    <i name="atom">  18840.78653830 </i>
    <i name="e_fr_energy">   -128.53602079 </i>
    <i name="e_wo_entrp">   -128.51880016 </i>
    <i name="e_0_energy">   -128.52741047 </i>
   </energy>
  </scstep>
  <scstep>
   <time name="diag">    0.60    0.60</time>
   <time name="diis">    1.82    1.82</time>
   <time name="orth">    0.14    0.14</time>
   <time name="total">    3.13    3.13</time>
   <dipole>
    <v name="dipole">      0.00000000       0.00000000      -0.27057613 </v>
    <i name="Tr[quadrupol]">   -496.26761093 </i>
    <i name="Echarged">      0.00000000 </i>
    <i name="Edipol_quadrupol">      0.00000000 </i>
    <i name="Eion">      0.00000000 </i>
   </dipole>
   <energy>
    <i name="e_fr_energy">   -132.83398392 </i>
    <i name="e_wo_entrp">   -132.80612631 </i>
    <i name="e_0_energy">   -132.82005512 </i>
   </energy>
  </scstep>
  <scstep>
   <time name="diag">    0.60    0.60</time>
   <time name="diis">    1.69    1.69</time>
   <time name="orth">    0.14    0.14</time>
   <time name="total">    3.00    3.00</time>
   <dipole>
    <v name="dipole">      0.00000000       0.00000000      -0.00966909 </v>
    <i name="Tr[quadrupol]">   -496.55050796 </i>
    <i name="Echarged">      0.00000000 </i>
    <i name="Edipol_quadrupol">      0.00000000 </i>
    <i name="Eion">      0.00000000 </i>
   </dipole>
   <energy>
    <i name="e_fr_energy">   -128.95093354 </i>
    <i name="e_wo_entrp">   -128.94017704 </i>
    <i name="e_0_energy">   -128.94555529 </i>
   </energy>
  </scstep>
  <scstep>
   <time name="diag">    0.60    0.60</time>
   <time name="diis">    1.71    1.71</time>
   <time name="orth">    0.14    0.14</time>
   <time name="total">    3.02    3.02</time>
   <dipole>
    <v name="dipole">      0.00000000       0.00000000      -0.00061554 </v>
    <i name="Tr[quadrupol]">   -495.65902817 </i>
    <i name="Echarged">      0.00000000 </i>
    <i name="Edipol_quadrupol">      0.00000000 </i>
    <i name="Eion">      0.00000000 </i>
   </dipole>
   <energy>
    <i name="e_fr_energy">   -128.51912221 </i>
    <i name="e_wo_entrp">   -128.50051307 </i>
    <i name="e_0_energy">   -128.50981764 </i>
   </energy>
  </scstep>
  <scstep>
   <time name="diag">    0.60    0.60</time>
   <time name="diis">    1.67    1.68</time>
   <time name="orth">    0.14    0.14</time>
   <time name="total">    2.98    2.99</time>
   <dipole>
    <v name="dipole">      0.00000000       0.00000000      -0.01114934 </v>
    <i name="Tr[quadrupol]">   -495.68139433 </i>
    <i name="Echarged">      0.00000000 </i>
    <i name="Edipol_quadrupol">      0.00000000 </i>
    <i name="Eion">      0.00000000 </i>
   </dipole>
   <energy>
    <i name="e_fr_energy">   -128.60375916 </i>
    <i name="e_wo_entrp">   -128.57081520 </i>
    <i name="e_0_energy">   -128.58728718 </i>
   </energy>
  </scstep>
  <scstep>
   <time name="diag">    0.60    0.60</time>
   <time name="diis">    1.58    1.58</time>
   <time name="orth">    0.14    0.14</time>
   <time name="total">    2.89    2.90</time>
   <dipole>
    <v name="dipole">      0.00000000       0.00000000      -0.00736477 </v>
    <i name="Tr[quadrupol]">   -495.61135113 </i>
    <i name="Echarged">      0.00000000 </i>
    <i name="Edipol_quadrupol">      0.00000000 </i>
    <i name="Eion">      0.00000000 </i>
   </dipole>
   <energy>
    <i name="e_fr_energy">   -128.55832085 </i>
    <i name="e_wo_entrp">   -128.52126427 </i>
    <i name="e_0_energy">   -128.53979256 </i>
   </energy>
  </scstep>
  <scstep>
   <time name="diag">    0.60    0.60</time>
   <time name="diis">    1.59    1.59</time>
   <time name="orth">    0.14    0.14</time>
   <time name="total">    2.90    2.91</time>
   <dipole>
    <v name="dipole">      0.00000000       0.00000000      -0.00553894 </v>
    <i name="Tr[quadrupol]">   -495.62425910 </i>
    <i name="Echarged">      0.00000000 </i>
    <i name="Edipol_quadrupol">      0.00000000 </i>
    <i name="Eion">      0.00000000 </i>
   </dipole>
   <energy>
    <i name="e_fr_energy">   -128.56023541 </i>
    <i name="e_wo_entrp">   -128.52506618 </i>
    <i name="e_0_energy">   -128.54265080 </i>
   </energy>
  </scstep>
  <scstep>
   <time name="diag">    0.60    0.60</time>
   <time name="diis">    1.48    1.48</time>
   <time name="orth">    0.14    0.14</time>
   <time name="total">    2.79    2.79</time>
   <dipole>
    <v name="dipole">      0.00000000       0.00000000      -0.00581052 </v>
    <i name="Tr[quadrupol]">   -495.63065426 </i>
    <i name="Echarged">      0.00000000 </i>
    <i name="Edipol_quadrupol">      0.00000000 </i>
    <i name="Eion">      0.00000000 </i>
   </dipole>
   <energy>
    <i name="e_fr_energy">   -128.57033877 </i>
    <i name="e_wo_entrp">   -128.53446673 </i>
    <i name="e_0_energy">   -128.55240275 </i>
   </energy>
  </scstep>
  <scstep>
   <time name="diag">    0.60    0.60</time>
   <time name="diis">    1.42    1.42</time>
   <time name="orth">    0.14    0.14</time>
   <time name="total">    2.73    2.74</time>
   <dipole>
    <v name="dipole">      0.00000000       0.00000000      -0.00270703 </v>
    <i name="Tr[quadrupol]">   -495.61663602 </i>
    <i name="Echarged">      0.00000000 </i>
    <i name="Edipol_quadrupol">      0.00000000 </i>
    <i name="Eion">      0.00000000 </i>
   </dipole>
   <energy>
    <i name="e_fr_energy">   -128.56452386 </i>
    <i name="e_wo_entrp">   -128.53230571 </i>
    <i name="e_0_energy">   -128.54841478 </i>
   </energy>
  </scstep>
  <scstep>
   <time name="diag">    0.60    0.60</time>
   <time name="diis">    1.42    1.42</time>
   <time name="orth">    0.14    0.14</time>
   <time name="total">    2.73    2.74</time>
   <dipole>
    <v name="dipole">      0.00000000       0.00000000      -0.00108559 </v>
    <i name="Tr[quadrupol]">   -495.59299687 </i>
    <i name="Echarged">      0.00000000 </i>
    <i name="Edipol_quadrupol">      0.00000000 </i>
    <i name="Eion">      0.00000000 </i>
   </dipole>
   <energy>
    <i name="e_fr_energy">   -128.56694462 </i>
    <i name="e_wo_entrp">   -128.53640173 </i>
    <i name="e_0_energy">   -128.55167318 </i>
   </energy>
  </scstep>
  <scstep>
   <time name="diag">    0.60    0.60</time>
   <time name="diis">    1.29    1.29</time>
   <time name="orth">    0.14    0.14</time>
   <time name="total">    2.60    2.60</time>
   <dipole>
    <v name="dipole">      0.00000000       0.00000000       0.00194490 </v>
    <i name="Tr[quadrupol]">   -495.58116971 </i>
    <i name="Echarged">      0.00000000 </i>
    <i name="Edipol_quadrupol">      0.00000000 </i>
    <i name="Eion">      0.00000000 </i>
   </dipole>
   <energy>
    <i name="e_fr_energy">   -128.56759168 </i>
    <i name="e_wo_entrp">   -128.54246273 </i>
    <i name="e_0_energy">   -128.55502720 </i>
   </energy>
  </scstep>
  <scstep>
   <time name="diag">    0.60    0.60</time>
   <time name="diis">    1.17    1.17</time>
   <time name="orth">    0.14    0.14</time>
   <time name="total">    2.49    2.49</time>
   <dipole>
    <v name="dipole">      0.00000000       0.00000000       0.00153106 </v>
    <i name="Tr[quadrupol]">   -495.56796975 </i>
    <i name="Echarged">      0.00000000 </i>
    <i name="Edipol_quadrupol">      0.00000000 </i>
    <i name="Eion">      0.00000000 </i>
   </dipole>
   <energy>
    <i name="e_fr_energy">   -128.56873079 </i>
    <i name="e_wo_entrp">   -128.54268220 </i>
    <i name="e_0_energy">   -128.55570649 </i>
   </energy>
  </scstep>
  <scstep>
   <time name="diag">    0.60    0.60</time>
   <time name="diis">    1.04    1.05</time>
   <time name="orth">    0.14    0.14</time>
   <time name="total">    2.36    2.37</time>
   <dipole>
    <v name="dipole">      0.00000000       0.00000000       0.00147669 </v>
    <i name="Tr[quadrupol]">   -495.55990533 </i>
    <i name="Echarged">      0.00000000 </i>
    <i name="Edipol_quadrupol">      0.00000000 </i>
    <i name="Eion">      0.00000000 </i>
   </dipole>
   <energy>
    <i name="e_fr_energy">   -128.56904055 </i>
    <i name="e_wo_entrp">   -128.54323051 </i>
    <i name="e_0_energy">   -128.55613553 </i>
   </energy>
  </scstep>
  <scstep>
   <time name="diag">    0.60    0.60</time>
   <time name="diis">    1.04    1.04</time>
   <time name="orth">    0.14    0.14</time>
   <time name="total">    2.36    2.36</time>
   <dipole>
    <v name="dipole">      0.00000000       0.00000000       0.00106487 </v>
    <i name="Tr[quadrupol]">   -495.55642299 </i>
    <i name="Echarged">      0.00000000 </i>
    <i name="Edipol_quadrupol">      0.00000000 </i>
    <i name="Eion">      0.00000000 </i>
   </dipole>
   <energy>
    <i name="e_fr_energy">   -128.56934440 </i>
    <i name="e_wo_entrp">   -128.54268455 </i>
    <i name="e_0_energy">   -128.55601447 </i>
   </energy>
  </scstep>
  <scstep>
   <time name="diag">    0.60    0.60</time>
   <time name="diis">    0.99    0.99</time>
   <time name="orth">    0.14    0.14</time>
   <time name="total">    2.15    2.15</time>
   <dipole>
    <v name="dipole">      0.00000000       0.00000000       0.00128890 </v>
    <i name="Tr[quadrupol]">   -495.55471488 </i>
    <i name="Echarged">      0.00000000 </i>
    <i name="Edipol_quadrupol">      0.00000000 </i>
    <i name="Eion">      0.00000000 </i>
   </dipole>
   <energy>
    <i name="alphaZ">    627.68883838 </i>
    <i name="ewald">  85072.58831163 </i>
    <i name="hartreedc">-102180.64332170 </i>
    <i name="XCdc">    792.72074055 </i>
    <i name="pawpsdc">  14168.99695176 </i>
    <i name="pawaedc"> -14521.24390516 </i>
    <i name="eentropy">     -0.02676574 </i>
    <i name="bandstr">  -2929.43682667 </i>
    <i name="atom">  18840.78653830 </i>
    <i name="e_fr_energy">   -128.56943866 </i>
    <i name="e_wo_entrp">   -128.54267291 </i>
    <i name="e_0_energy">   -128.55605579 </i>
   </energy>
  </scstep>
  <structure>
   <crystal>
    <varray name="basis" >
     <v>       3.88680817       0.00000000       0.00000000 </v>
     <v>       0.00000000       3.88680817       0.00000000 </v>
     <v>       0.00000000       0.00000000      30.54723268 </v>
    </varray>
    <i name="volume">    461.48552838 </i>
    <varray name="rec_basis" >
     <v>       0.25728051       0.00000000       0.00000000 </v>
     <v>       0.00000000       0.25728051       0.00000000 </v>
     <v>       0.00000000       0.00000000       0.03273619 </v>
    </varray>
   </crystal>
   <varray name="positions" >
    <v>       0.50000000       0.50000000       0.06361964 </v>
    <v>       0.50000000       0.50000000       0.19085893 </v>
    <v>       0.50000000       0.50000000       0.31706846 </v>
    <v>       0.50000000       0.50000000       0.44854856 </v>
    <v>       0.00000000       0.00000000       0.00000000 </v>
    <v>       0.00000000       0.00000000       0.12723929 </v>
    <v>       0.00000000       0.00000000       0.25472486 </v>
    <v>       0.00000000       0.00000000       0.38332545 </v>
    <v>       0.50000000       0.00000000       0.00000000 </v>
    <v>       0.50000000       0.00000000       0.12723929 </v>
    <v>       0.50000000       0.00000000       0.25680760 </v>
    <v>       0.50000000       0.00000000       0.39573242 </v>
    <v>       0.00000000       0.50000000       0.00000000 </v>
    <v>       0.00000000       0.50000000       0.12723929 </v>
    <v>       0.00000000       0.50000000       0.25680760 </v>
    <v>       0.00000000       0.50000000       0.39573242 </v>
    <v>       0.00000000       0.00000000       0.06361964 </v>
    <v>       0.00000000       0.00000000       0.19085893 </v>
    <v>       0.00000000       0.00000000       0.32235915 </v>
    <v>       0.00000000       0.00000000       0.46780085 </v>
    <v>       0.00000000       0.00000000       0.51414527 </v>
   </varray>
  </structure>
  <varray name="forces" >
   <v>       0.00000000       0.00000000      -0.33901299 </v>
   <v>       0.00000000       0.00000000      -0.06271429 </v>
   <v>       0.00000000       0.00000000      -0.11577229 </v>
   <v>       0.00000000       0.00000000       0.01309862 </v>
   <v>       0.00000000       0.00000000       0.27348788 </v>
   <v>       0.00000000       0.00000000      -0.17525160 </v>
   <v>       0.00000000       0.00000000      -0.01574658 </v>
   <v>       0.00000000       0.00000000       0.24689910 </v>
   <v>       0.00000000       0.00000000      -0.26990968 </v>
   <v>       0.00000000       0.00000000       0.06877467 </v>
   <v>       0.00000000       0.00000000       0.03038440 </v>
   <v>       0.00000000       0.00000000      -0.06394142 </v>
   <v>       0.00000000       0.00000000      -0.26990968 </v>
   <v>       0.00000000       0.00000000       0.06877467 </v>
   <v>       0.00000000       0.00000000       0.03038440 </v>
   <v>       0.00000000       0.00000000      -0.06394142 </v>
   <v>       0.00000000       0.00000000       0.33679428 </v>
   <v>       0.00000000       0.00000000       0.31508263 </v>
   <v>       0.00000000       0.00000000      -0.19387874 </v>
   <v>       0.00000000       0.00000000       0.04939767 </v>
   <v>       0.00000000       0.00000000       0.13700039 </v>
  </varray>
  <energy>
   <i name="e_fr_energy">   -128.56943866 </i>
   <i name="e_wo_entrp">   -128.55605579 </i>
   <i name="e_0_energy">     -0.02676574 </i>
  </energy>
  <time name="totalsc">   45.30   45.36</time>
 </calculation>
 <calculation>
  <scstep>
   <time name="dav">    4.66    4.66</time>
   <time name="total">    5.24    5.24</time>
   <dipole>
    <v name="dipole">      0.00000000       0.00000000       0.00110757 </v>
    <i name="Tr[quadrupol]">   -495.55538665 </i>
    <i name="Echarged">      0.00000000 </i>
    <i name="Edipol_quadrupol">      0.00000000 </i>
    <i name="Eion">      0.00000000 </i>
   </dipole>
   <energy>
    <i name="alphaZ">    627.65281025 </i>
    <i name="ewald">  85048.97231750 </i>
    <i name="hartreedc">-102157.39227836 </i>
    <i name="XCdc">    792.70203462 </i>
    <i name="pawpsdc">  14169.06589314 </i>
    <i name="pawaedc"> -14521.31020093 </i>
    <i name="eentropy">     -0.03104060 </i>
    <i name="bandstr">  -2929.01378230 </i>
    <i name="atom">  18840.78653830 </i>
    <i name="e_fr_energy">   -128.56770838 </i>
    <i name="e_wo_entrp">   -128.53666778 </i>
    <i name="e_0_energy">   -128.55218808 </i>
   </energy>
  </scstep>
  <scstep>
   <time name="diag">    0.60    0.60</time>
   <time name="diis">    1.76    1.76</time>
   <time name="orth">    0.14    0.14</time>
   <time name="total">    3.07    3.07</time>
   <dipole>
    <v name="dipole">      0.00000000       0.00000000       0.10130732 </v>
    <i name="Tr[quadrupol]">   -495.27180165 </i>
    <i name="Echarged">      0.00000000 </i>
    <i name="Edipol_quadrupol">      0.00000000 </i>
    <i name="Eion">      0.00000000 </i>
   </dipole>
   <energy>
    <i name="e_fr_energy">   -129.39490170 </i>
    <i name="e_wo_entrp">   -129.38784928 </i>
    <i name="e_0_energy">   -129.39137549 </i>
   </energy>
  </scstep>
  <scstep>
   <time name="diag">    0.60    0.60</time>
   <time name="diis">    1.67    1.67</time>
   <time name="orth">    0.14    0.14</time>
   <time name="total">    2.98    2.98</time>
   <dipole>
    <v name="dipole">      0.00000000       0.00000000      -0.00104615 </v>
    <i name="Tr[quadrupol]">   -495.46228333 </i>
    <i name="Echarged">      0.00000000 </i>
    <i name="Edipol_quadrupol">      0.00000000 </i>
    <i name="Eion">      0.00000000 </i>
   </dipole>
   <energy>
    <i name="e_fr_energy">   -128.55203389 </i>
    <i name="e_wo_entrp">   -128.52838109 </i>
    <i name="e_0_energy">   -128.54020749 </i>
   </energy>
  </scstep>
  <scstep>
   <time name="diag">    0.60    0.60</time>
   <time name="diis">    1.59    1.59</time>
   <time name="orth">    0.14    0.14</time>
   <time name="total">    2.90    2.91</time>
   <dipole>
    <v name="dipole">      0.00000000       0.00000000       0.00384652 </v>
    <i name="Tr[quadrupol]">   -495.54917341 </i>
    <i name="Echarged">      0.00000000 </i>
    <i name="Edipol_quadrupol">      0.00000000 </i>
    <i name="Eion">      0.00000000 </i>
   </dipole>
   <energy>
    <i name="e_fr_energy">   -128.56876474 </i>
    <i name="e_wo_entrp">   -128.54575713 </i>
    <i name="e_0_energy">   -128.55726094 </i>
   </energy>
  </scstep>
  <scstep>
   <time name="diag">    0.60    0.60</time>
   <time name="diis">    1.52    1.52</time>
   <time name="orth">    0.14    0.14</time>
   <time name="total">    2.83    2.83</time>
   <dipole>
    <v name="dipole">      0.00000000       0.00000000       0.00027217 </v>
    <i name="Tr[quadrupol]">   -495.60165221 </i>
    <i name="Echarged">      0.00000000 </i>
    <i name="Edipol_quadrupol">      0.00000000 </i>
    <i name="Eion">      0.00000000 </i>
   </dipole>
   <energy>
    <i name="e_fr_energy">   -128.57475618 </i>
    <i name="e_wo_entrp">   -128.54028099 </i>
    <i name="e_0_energy">   -128.55751858 </i>
   </energy>
  </scstep>
  <scstep>
   <time name="diag">    0.60    0.60</time>
   <time name="diis">    1.41    1.41</time>
   <time name="orth">    0.14    0.14</time>
   <time name="total">    2.72    2.72</time>
   <dipole>
    <v name="dipole">      0.00000000       0.00000000       0.00445787 </v>
    <i name="Tr[quadrupol]">   -495.54611210 </i>
    <i name="Echarged">      0.00000000 </i>
    <i name="Edipol_quadrupol">      0.00000000 </i>
    <i name="Eion">      0.00000000 </i>
   </dipole>
   <energy>
    <i name="e_fr_energy">   -128.57050484 </i>
    <i name="e_wo_entrp">   -128.54884511 </i>
    <i name="e_0_energy">   -128.55967498 </i>
   </energy>
  </scstep>
  <scstep>
   <time name="diag">    0.60    0.60</time>
   <time name="diis">    1.28    1.28</time>
   <time name="orth">    0.14    0.14</time>
   <time name="total">    2.59    2.59</time>
   <dipole>
    <v name="dipole">      0.00000000       0.00000000       0.00542339 </v>
    <i name="Tr[quadrupol]">   -495.55359645 </i>
    <i name="Echarged">      0.00000000 </i>
    <i name="Edipol_quadrupol">      0.00000000 </i>
    <i name="Eion">      0.00000000 </i>
   </dipole>
   <energy>
    <i name="e_fr_energy">   -128.57344420 </i>
    <i name="e_wo_entrp">   -128.55315284 </i>
    <i name="e_0_energy">   -128.56329852 </i>
   </energy>
  </scstep>
  <scstep>
   <time name="diag">    0.60    0.60</time>
   <time name="diis">    1.15    1.15</time>
   <time name="orth">    0.14    0.14</time>
   <time name="total">    2.46    2.47</time>
   <dipole>
    <v name="dipole">      0.00000000       0.00000000       0.00275622 </v>
    <i name="Tr[quadrupol]">   -495.55923985 </i>
    <i name="Echarged">      0.00000000 </i>
    <i name="Edipol_quadrupol">      0.00000000 </i>
    <i name="Eion">      0.00000000 </i>
   </dipole>
   <energy>
    <i name="e_fr_energy">   -128.56975192 </i>
    <i name="e_wo_entrp">   -128.54496297 </i>
    <i name="e_0_energy">   -128.55735744 </i>
   </energy>
  </scstep>
  <scstep>
   <time name="diag">    0.60    0.60</time>
   <time name="diis">    1.16    1.16</time>
   <time name="orth">    0.14    0.14</time>
   <time name="total">    2.47    2.47</time>
   <dipole>
    <v name="dipole">      0.00000000       0.00000000       0.00165394 </v>
    <i name="Tr[quadrupol]">   -495.55813158 </i>
    <i name="Echarged">      0.00000000 </i>
    <i name="Edipol_quadrupol">      0.00000000 </i>
    <i name="Eion">      0.00000000 </i>
   </dipole>
   <energy>
    <i name="e_fr_energy">   -128.57083329 </i>
    <i name="e_wo_entrp">   -128.54223420 </i>
    <i name="e_0_energy">   -128.55653375 </i>
   </energy>
  </scstep>
  <scstep>
   <time name="diag">    0.60    0.60</time>
   <time name="diis">    1.08    1.08</time>
   <time name="orth">    0.14    0.14</time>
   <time name="total">    2.40    2.40</time>
   <dipole>
    <v name="dipole">      0.00000000       0.00000000       0.00126292 </v>
    <i name="Tr[quadrupol]">   -495.55453317 </i>
    <i name="Echarged">      0.00000000 </i>
    <i name="Edipol_quadrupol">      0.00000000 </i>
    <i name="Eion">      0.00000000 </i>
   </dipole>
   <energy>
    <i name="e_fr_energy">   -128.57186495 </i>
    <i name="e_wo_entrp">   -128.54293508 </i>
    <i name="e_0_energy">   -128.55740001 </i>
   </energy>
  </scstep>
  <scstep>
   <time name="diag">    0.60    0.60</time>
   <time name="diis">    0.99    0.99</time>
   <time name="orth">    0.14    0.14</time>
   <time name="total">    2.15    2.15</time>
   <dipole>
    <v name="dipole">      0.00000000       0.00000000       0.00171689 </v>
    <i name="Tr[quadrupol]">   -495.55303601 </i>
    <i name="Echarged">      0.00000000 </i>
    <i name="Edipol_quadrupol">      0.00000000 </i>
    <i name="Eion">      0.00000000 </i>
   </dipole>
   <energy>
    <i name="alphaZ">    627.69590620 </i>
    <i name="ewald">  85048.97231750 </i>
    <i name="hartreedc">-102157.03681718 </i>
    <i name="XCdc">    792.68585250 </i>
    <i name="pawpsdc">  14167.28643769 </i>
    <i name="pawaedc"> -14519.54678579 </i>
    <i name="eentropy">     -0.02783197 </i>
    <i name="bandstr">  -2929.38750341 </i>
    <i name="atom">  18840.78653830 </i>
    <i name="e_fr_energy">   -128.57188617 </i>
    <i name="e_wo_entrp">   -128.54405420 </i>
    <i name="e_0_energy">   -128.55797018 </i>
   </energy>
  </scstep>
  <structure>
   <crystal>
    <varray name="basis" >
     <v>       3.88680817       0.00000000       0.00000000 </v>
     <v>       0.00000000       3.88680817       0.00000000 </v>
     <v>       0.00000000       0.00000000      30.54723268 </v>
    </varray>
    <i name="volume">    461.48552838 </i>
    <varray name="rec_basis" >
     <v>       0.25728051       0.00000000       0.00000000 </v>
     <v>       0.00000000       0.25728051       0.00000000 </v>
     <v>       0.00000000       0.00000000       0.03273619 </v>
    </varray>
   </crystal>
   <varray name="positions" >
    <v>       0.50000000       0.50000000       0.06361964 </v>
    <v>       0.50000000       0.50000000       0.19085893 </v>
    <v>       0.50000000       0.50000000       0.31711590 </v>
    <v>       0.50000000       0.50000000       0.44884916 </v>
    <v>       0.00000000       0.00000000       0.00000000 </v>
    <v>       0.00000000       0.00000000       0.12723929 </v>
    <v>       0.00000000       0.00000000       0.25477261 </v>
    <v>       0.00000000       0.00000000       0.38342468 </v>
    <v>       0.50000000       0.00000000       0.00000000 </v>
    <v>       0.50000000       0.00000000       0.12723929 </v>
    <v>       0.50000000       0.00000000       0.25679968 </v>
    <v>       0.50000000       0.00000000       0.39561805 </v>
    <v>       0.00000000       0.50000000       0.00000000 </v>
    <v>       0.00000000       0.50000000       0.12723929 </v>
    <v>       0.00000000       0.50000000       0.25679968 </v>
    <v>       0.00000000       0.50000000       0.39561805 </v>
    <v>       0.00000000       0.00000000       0.06361964 </v>
    <v>       0.00000000       0.00000000       0.19085893 </v>
    <v>       0.00000000       0.00000000       0.32229462 </v>
    <v>       0.00000000       0.00000000       0.46767823 </v>
    <v>       0.00000000       0.00000000       0.51408938 </v>
   </varray>
  </structure>
  <varray name="forces" >
   <v>       0.00000000       0.00000000      -0.33630756 </v>
   <v>       0.00000000       0.00000000      -0.05293964 </v>
   <v>       0.00000000       0.00000000      -0.09483660 </v>
   <v>       0.00000000       0.00000000      -0.03118333 </v>
   <v>       0.00000000       0.00000000       0.26914493 </v>
   <v>       0.00000000       0.00000000      -0.16441018 </v>
   <v>       0.00000000       0.00000000      -0.01652588 </v>
   <v>       0.00000000       0.00000000       0.17343992 </v>
   <v>       0.00000000       0.00000000      -0.27091122 </v>
   <v>       0.00000000       0.00000000       0.06678023 </v>
   <v>       0.00000000       0.00000000       0.02552907 </v>
   <v>       0.00000000       0.00000000      -0.03587287 </v>
   <v>       0.00000000       0.00000000      -0.27091122 </v>
   <v>       0.00000000       0.00000000       0.06678023 </v>
   <v>       0.00000000       0.00000000       0.02552907 </v>
   <v>       0.00000000       0.00000000      -0.03587287 </v>
   <v>       0.00000000       0.00000000       0.34163886 </v>
   <v>       0.00000000       0.00000000       0.31264018 </v>
   <v>       0.00000000       0.00000000      -0.14005724 </v>
   <v>       0.00000000       0.00000000       0.04602657 </v>
   <v>       0.00000000       0.00000000       0.12231954 </v>
  </varray>
  <energy>
   <i name="e_fr_energy">   -128.57188617 </i>
   <i name="e_wo_entrp">   -128.55797018 </i>
   <i name="e_0_energy">     -0.02783197 </i>
  </energy>
  <time name="totalsc">   33.85   33.89</time>
 </calculation>
 <calculation>
  <scstep>
   <time name="dav">    4.54    4.54</time>
   <time name="total">    5.11    5.12</time>
   <dipole>
    <v name="dipole">      0.00000000       0.00000000       0.00158519 </v>
    <i name="Tr[quadrupol]">   -495.54850032 </i>
    <i name="Echarged">      0.00000000 </i>
    <i name="Edipol_quadrupol">      0.00000000 </i>
    <i name="Eion">      0.00000000 </i>
   </dipole>
   <energy>
    <i name="alphaZ">    627.58754929 </i>
    <i name="ewald">  85050.45075000 </i>
    <i name="hartreedc">-102158.37119723 </i>
    <i name="XCdc">    792.69100250 </i>
    <i name="pawpsdc">  14167.24834995 </i>
    <i name="pawaedc"> -14519.50644419 </i>
    <i name="eentropy">     -0.02522298 </i>
    <i name="bandstr">  -2929.42999750 </i>
    <i name="atom">  18840.78653830 </i>
    <i name="e_fr_energy">   -128.56867186 </i>
    <i name="e_wo_entrp">   -128.54344887 </i>
    <i name="e_0_energy">   -128.55606036 </i>
   </energy>
  </scstep>
  <scstep>
   <time name="diag">    0.60    0.60</time>
   <time name="diis">    1.86    1.86</time>
   <time name="orth">    0.14    0.14</time>
   <time name="total">    3.17    3.17</time>
   <dipole>
    <v name="dipole">      0.00000000       0.00000000      -0.06701143 </v>
    <i name="Tr[quadrupol]">   -495.80947545 </i>
    <i name="Echarged">      0.00000000 </i>
    <i name="Edipol_quadrupol">      0.00000000 </i>
    <i name="Eion">      0.00000000 </i>
   </dipole>
   <energy>
    <i name="e_fr_energy">   -129.30134925 </i>
    <i name="e_wo_entrp">   -129.28011048 </i>
    <i name="e_0_energy">   -129.29072987 </i>
   </energy>
  </scstep>
  <scstep>
   <time name="diag">    0.60    0.60</time>
   <time name="diis">    1.66    1.66</time>
   <time name="orth">    0.14    0.14</time>
   <time name="total">    2.97    2.98</time>
   <dipole>
    <v name="dipole">      0.00000000       0.00000000       0.01111118 </v>
    <i name="Tr[quadrupol]">   -495.52371119 </i>
    <i name="Echarged">      0.00000000 </i>
    <i name="Edipol_quadrupol">      0.00000000 </i>
    <i name="Eion">      0.00000000 </i>
   </dipole>
   <energy>
    <i name="e_fr_energy">   -128.54330985 </i>
    <i name="e_wo_entrp">   -128.52825782 </i>
    <i name="e_0_energy">   -128.53578383 </i>
   </energy>
  </scstep>
  <scstep>
   <time name="diag">    0.60    0.60</time>
   <time name="diis">    1.60    1.60</time>
   <time name="orth">    0.14    0.14</time>
   <time name="total">    2.92    2.92</time>
   <dipole>
    <v name="dipole">      0.00000000       0.00000000      -0.00085997 </v>
    <i name="Tr[quadrupol]">   -495.56091844 </i>
    <i name="Echarged">      0.00000000 </i>
    <i name="Edipol_quadrupol">      0.00000000 </i>
    <i name="Eion">      0.00000000 </i>
   </dipole>
   <energy>
    <i name="e_fr_energy">   -128.57324172 </i>
    <i name="e_wo_entrp">   -128.54197952 </i>
    <i name="e_0_energy">   -128.55761062 </i>
   </energy>
  </scstep>
  <scstep>
   <time name="diag">    0.60    0.60</time>
   <time name="diis">    1.51    1.51</time>
   <time name="orth">    0.14    0.14</time>
   <time name="total">    2.83    2.83</time>
   <dipole>
    <v name="dipole">      0.00000000       0.00000000      -0.00312624 </v>
    <i name="Tr[quadrupol]">   -495.51161338 </i>
    <i name="Echarged">      0.00000000 </i>
    <i name="Edipol_quadrupol">      0.00000000 </i>
    <i name="Eion">      0.00000000 </i>
   </dipole>
   <energy>
    <i name="e_fr_energy">   -128.57695567 </i>
    <i name="e_wo_entrp">   -128.54373195 </i>
    <i name="e_0_energy">   -128.56034381 </i>
   </energy>
  </scstep>
  <scstep>
   <time name="diag">    0.60    0.60</time>
   <time name="diis">    1.39    1.39</time>
   <time name="orth">    0.14    0.14</time>
   <time name="total">    2.70    2.70</time>
   <dipole>
    <v name="dipole">      0.00000000       0.00000000       0.00355112 </v>
    <i name="Tr[quadrupol]">   -495.52170614 </i>
    <i name="Echarged">      0.00000000 </i>
    <i name="Edipol_quadrupol">      0.00000000 </i>
    <i name="Eion">      0.00000000 </i>
   </dipole>
   <energy>
    <i name="e_fr_energy">   -128.57173370 </i>
    <i name="e_wo_entrp">   -128.54753044 </i>
    <i name="e_0_energy">   -128.55963207 </i>
   </energy>
  </scstep>
  <scstep>
   <time name="diag">    0.60    0.60</time>
   <time name="diis">    1.29    1.29</time>
   <time name="orth">    0.14    0.14</time>
   <time name="total">    2.60    2.61</time>
   <dipole>
    <v name="dipole">      0.00000000       0.00000000       0.00261775 </v>
    <i name="Tr[quadrupol]">   -495.54008453 </i>
    <i name="Echarged">      0.00000000 </i>
    <i name="Edipol_quadrupol">      0.00000000 </i>
    <i name="Eion">      0.00000000 </i>
   </dipole>
   <energy>
    <i name="e_fr_energy">   -128.57311202 </i>
    <i name="e_wo_entrp">   -128.54724238 </i>
    <i name="e_0_energy">   -128.56017720 </i>
   </energy>
  </scstep>
  <scstep>
   <time name="diag">    0.60    0.60</time>
   <time name="diis">    1.07    1.08</time>
   <time name="orth">    0.14    0.14</time>
   <time name="total">    2.23    2.23</time>
   <dipole>
    <v name="dipole">      0.00000000       0.00000000       0.00152658 </v>
    <i name="Tr[quadrupol]">   -495.55718589 </i>
    <i name="Echarged">      0.00000000 </i>
    <i name="Edipol_quadrupol">      0.00000000 </i>
    <i name="Eion">      0.00000000 </i>
   </dipole>
   <energy>
    <i name="alphaZ">    627.77230791 </i>
    <i name="ewald">  85050.45075000 </i>
    <i name="hartreedc">-102158.70507325 </i>
    <i name="XCdc">    792.69731947 </i>
    <i name="pawpsdc">  14167.11694569 </i>
    <i name="pawaedc"> -14519.36314122 </i>
    <i name="eentropy">     -0.03040405 </i>
    <i name="bandstr">  -2929.29838927 </i>
    <i name="atom">  18840.78653830 </i>
    <i name="e_fr_energy">   -128.57314641 </i>
    <i name="e_wo_entrp">   -128.54274236 </i>
    <i name="e_0_energy">   -128.55794439 </i>
   </energy>
  </scstep>
  <structure>
   <crystal>
    <varray name="basis" >
     <v>       3.88680817       0.00000000       0.00000000 </v>
     <v>       0.00000000       3.88680817       0.00000000 </v>
     <v>       0.00000000       0.00000000      30.54723268 </v>
    </varray>
    <i name="volume">    461.48552838 </i>
    <varray name="rec_basis" >
     <v>       0.25728051       0.00000000       0.00000000 </v>
     <v>       0.00000000       0.25728051       0.00000000 </v>
     <v>       0.00000000       0.00000000       0.03273619 </v>
    </varray>
   </crystal>
   <varray name="positions" >
    <v>       0.50000000       0.50000000       0.06361964 </v>
    <v>       0.50000000       0.50000000       0.19085893 </v>
    <v>       0.50000000       0.50000000       0.31695397 </v>
    <v>       0.50000000       0.50000000       0.44853073 </v>
    <v>       0.00000000       0.00000000       0.00000000 </v>
    <v>       0.00000000       0.00000000       0.12723929 </v>
    <v>       0.00000000       0.00000000       0.25470765 </v>
    <v>       0.00000000       0.00000000       0.38354776 </v>
    <v>       0.50000000       0.00000000       0.00000000 </v>
    <v>       0.50000000       0.00000000       0.12723929 </v>
    <v>       0.50000000       0.00000000       0.25683875 </v>
    <v>       0.50000000       0.00000000       0.39567991 </v>
    <v>       0.00000000       0.50000000       0.00000000 </v>
    <v>       0.00000000       0.50000000       0.12723929 </v>
    <v>       0.00000000       0.50000000       0.25683875 </v>
    <v>       0.00000000       0.50000000       0.39567991 </v>
    <v>       0.00000000       0.00000000       0.06361964 </v>
    <v>       0.00000000       0.00000000       0.19085893 </v>
    <v>       0.00000000       0.00000000       0.32218071 </v>
    <v>       0.00000000       0.00000000       0.46784949 </v>
    <v>       0.00000000       0.00000000       0.51429330 </v>
   </varray>
  </structure>
  <varray name="forces" >
   <v>       0.00000000       0.00000000      -0.39902490 </v>
   <v>       0.00000000       0.00000000      -0.00011756 </v>
   <v>       0.00000000       0.00000000      -0.08425903 </v>
   <v>       0.00000000       0.00000000       0.08537605 </v>
   <v>       0.00000000       0.00000000       0.26285341 </v>
   <v>       0.00000000       0.00000000      -0.16033212 </v>
   <v>       0.00000000       0.00000000       0.01401177 </v>
   <v>       0.00000000       0.00000000       0.03614836 </v>
   <v>       0.00000000       0.00000000      -0.26609811 </v>
   <v>       0.00000000       0.00000000       0.06456864 </v>
   <v>       0.00000000       0.00000000       0.00271179 </v>
   <v>       0.00000000       0.00000000      -0.03902803 </v>
   <v>       0.00000000       0.00000000      -0.26609811 </v>
   <v>       0.00000000       0.00000000       0.06456864 </v>
   <v>       0.00000000       0.00000000       0.00271179 </v>
   <v>       0.00000000       0.00000000      -0.03902803 </v>
   <v>       0.00000000       0.00000000       0.34863176 </v>
   <v>       0.00000000       0.00000000       0.29610617 </v>
   <v>       0.00000000       0.00000000      -0.00999313 </v>
   <v>       0.00000000       0.00000000      -0.05731172 </v>
   <v>       0.00000000       0.00000000       0.14360234 </v>
  </varray>
  <energy>
   <i name="e_fr_energy">   -128.57314641 </i>
   <i name="e_wo_entrp">   -128.55794439 </i>
   <i name="e_0_energy">     -0.03040405 </i>
  </energy>
  <time name="totalsc">   26.59   26.63</time>
 </calculation>
 <calculation>
  <scstep>
   <time name="dav">    4.39    4.39</time>
   <time name="total">    4.97    4.97</time>
   <dipole>
    <v name="dipole">      0.00000000       0.00000000       0.00127828 </v>
    <i name="Tr[quadrupol]">   -495.53311529 </i>
    <i name="Echarged">      0.00000000 </i>
    <i name="Edipol_quadrupol">      0.00000000 </i>
    <i name="Eion">      0.00000000 </i>
   </dipole>
   <energy>
    <i name="alphaZ">    627.78378935 </i>
    <i name="ewald">  85050.55192737 </i>
    <i name="hartreedc">-102158.03123619 </i>
    <i name="XCdc">    792.69695190 </i>
    <i name="pawpsdc">  14166.99932032 </i>
    <i name="pawaedc"> -14519.23473832 </i>
    <i name="eentropy">     -0.02946617 </i>
    <i name="bandstr">  -2930.09611014 </i>
    <i name="atom">  18840.78653830 </i>
    <i name="e_fr_energy">   -128.57302357 </i>
    <i name="e_wo_entrp">   -128.54355740 </i>
    <i name="e_0_energy">   -128.55829048 </i>
   </energy>
  </scstep>
  <scstep>
   <time name="diag">    0.60    0.60</time>
   <time name="diis">    1.59    1.60</time>
   <time name="orth">    0.14    0.14</time>
   <time name="total">    2.90    2.91</time>
   <dipole>
    <v name="dipole">      0.00000000       0.00000000       0.06506122 </v>
    <i name="Tr[quadrupol]">   -495.50841012 </i>
    <i name="Echarged">      0.00000000 </i>
    <i name="Edipol_quadrupol">      0.00000000 </i>
    <i name="Eion">      0.00000000 </i>
   </dipole>
   <energy>
    <i name="e_fr_energy">   -128.95322415 </i>
    <i name="e_wo_entrp">   -128.94562287 </i>
[...]
   <v>       0.00000000       0.00000000      -0.00345871 </v>
   <v>       0.00000000       0.00000000      -0.00184625 </v>
   <v>       0.00000000       0.00000000      -0.27397961 </v>
   <v>       0.00000000       0.00000000       0.07713607 </v>
   <v>       0.00000000       0.00000000      -0.00345871 </v>
   <v>       0.00000000       0.00000000      -0.00184625 </v>
   <v>       0.00000000       0.00000000       0.32416333 </v>
   <v>       0.00000000       0.00000000       0.29040291 </v>
   <v>       0.00000000       0.00000000       0.06857512 </v>
   <v>       0.00000000       0.00000000       0.11040415 </v>
   <v>       0.00000000       0.00000000      -0.05358790 </v>
  </varray>
  <energy>
   <i name="e_fr_energy">   -128.58260504 </i>
   <i name="e_wo_entrp">   -128.57068032 </i>
   <i name="e_0_energy">     -0.02384945 </i>
  </energy>
  <time name="totalsc">    7.34    7.36</time>
 </calculation>
 <calculation>
  <scstep>
   <time name="dav">    2.95    2.95</time>
   <time name="total">    3.52    3.53</time>
   <dipole>
    <v name="dipole">      0.00000000       0.00000000       0.00637645 </v>
    <i name="Tr[quadrupol]">   -495.40184134 </i>
    <i name="Echarged">      0.00000000 </i>
    <i name="Edipol_quadrupol">      0.00000000 </i>
    <i name="Eion">      0.00000000 </i>
   </dipole>
   <energy>
    <i name="alphaZ">    627.86593300 </i>
    <i name="ewald">  84570.33514634 </i>
    <i name="hartreedc">-101676.30440839 </i>
    <i name="XCdc">    792.64275181 </i>
    <i name="pawpsdc">  14166.01714876 </i>
    <i name="pawaedc"> -14518.19327729 </i>
    <i name="eentropy">     -0.02497859 </i>
    <i name="bandstr">  -2931.70729341 </i>
    <i name="atom">  18840.78653830 </i>
    <i name="e_fr_energy">   -128.58243948 </i>
    <i name="e_wo_entrp">   -128.55746089 </i>
    <i name="e_0_energy">   -128.56995018 </i>
   </energy>
  </scstep>
  <scstep>
   <time name="diag">    0.60    0.60</time>
   <time name="diis">    1.07    1.08</time>
   <time name="orth">    0.14    0.14</time>
   <time name="total">    2.39    3.21</time>
   <dipole>
    <v name="dipole">      0.00000000       0.00000000       0.00114235 </v>
    <i name="Tr[quadrupol]">   -495.40626736 </i>
    <i name="Echarged">      0.00000000 </i>
    <i name="Edipol_quadrupol">      0.00000000 </i>
    <i name="Eion">      0.00000000 </i>
   </dipole>
   <energy>
    <i name="e_fr_energy">   -128.59051288 </i>
    <i name="e_wo_entrp">   -128.55728319 </i>
    <i name="e_0_energy">   -128.57389804 </i>
   </energy>
  </scstep>
  <scstep>
   <time name="diag">    0.60    0.60</time>
   <time name="diis">    1.28    1.29</time>
   <time name="orth">    0.14    0.14</time>
   <time name="total">    2.60    2.60</time>
   <dipole>
    <v name="dipole">      0.00000000       0.00000000       0.00640760 </v>
    <i name="Tr[quadrupol]">   -495.38049665 </i>
    <i name="Echarged">      0.00000000 </i>
    <i name="Edipol_quadrupol">      0.00000000 </i>
    <i name="Eion">      0.00000000 </i>
   </dipole>
   <energy>
    <i name="e_fr_energy">   -128.57877533 </i>
    <i name="e_wo_entrp">   -128.55400546 </i>
    <i name="e_0_energy">   -128.56639040 </i>
   </energy>
  </scstep>
  <scstep>
   <time name="diag">    0.60    0.60</time>
   <time name="diis">    1.21    1.21</time>
   <time name="orth">    0.14    0.14</time>
   <time name="total">    2.52    2.53</time>
   <dipole>
    <v name="dipole">      0.00000000       0.00000000       0.00697949 </v>
    <i name="Tr[quadrupol]">   -495.42401891 </i>
    <i name="Echarged">      0.00000000 </i>
    <i name="Edipol_quadrupol">      0.00000000 </i>
    <i name="Eion">      0.00000000 </i>
   </dipole>
   <energy>
    <i name="e_fr_energy">   -128.58235990 </i>
    <i name="e_wo_entrp">   -128.55781984 </i>
    <i name="e_0_energy">   -128.57008987 </i>
   </energy>
  </scstep>
  <scstep>
   <time name="diag">    0.60    0.60</time>
   <time name="diis">    1.05    1.06</time>
   <time name="orth">    0.14    0.14</time>
   <time name="total">    2.37    2.37</time>
   <dipole>
    <v name="dipole">      0.00000000       0.00000000       0.00643475 </v>
    <i name="Tr[quadrupol]">   -495.40167695 </i>
    <i name="Echarged">      0.00000000 </i>
    <i name="Edipol_quadrupol">      0.00000000 </i>
    <i name="Eion">      0.00000000 </i>
   </dipole>
   <energy>
    <i name="e_fr_energy">   -128.58249681 </i>
    <i name="e_wo_entrp">   -128.55771725 </i>
    <i name="e_0_energy">   -128.57010703 </i>
   </energy>
  </scstep>
  <scstep>
   <time name="diag">    0.60    0.60</time>
   <time name="diis">    0.88    0.89</time>
   <time name="orth">    0.14    0.14</time>
   <time name="total">    2.04    2.05</time>
   <dipole>
    <v name="dipole">      0.00000000       0.00000000       0.00616129 </v>
    <i name="Tr[quadrupol]">   -495.39285361 </i>
    <i name="Echarged">      0.00000000 </i>
    <i name="Edipol_quadrupol">      0.00000000 </i>
    <i name="Eion">      0.00000000 </i>
   </dipole>
   <energy>
    <i name="alphaZ">    627.53820739 </i>
    <i name="ewald">  84570.33514634 </i>
    <i name="hartreedc">-101676.27720258 </i>
    <i name="XCdc">    792.64238155 </i>
    <i name="pawpsdc">  14166.00971549 </i>
    <i name="pawaedc"> -14518.18617782 </i>
    <i name="eentropy">     -0.02528302 </i>
    <i name="bandstr">  -2931.40581561 </i>
    <i name="atom">  18840.78653830 </i>
    <i name="e_fr_energy">   -128.58248996 </i>
    <i name="e_wo_entrp">   -128.55720694 </i>
    <i name="e_0_energy">   -128.56984845 </i>
   </energy>
  </scstep>
  <structure>
   <crystal>
    <varray name="basis" >
     <v>       3.88680817       0.00000000       0.00000000 </v>
     <v>       0.00000000       3.88680817       0.00000000 </v>
     <v>       0.00000000       0.00000000      30.54723268 </v>
    </varray>
    <i name="volume">    461.48552838 </i>
    <varray name="rec_basis" >
     <v>       0.25728051       0.00000000       0.00000000 </v>
     <v>       0.00000000       0.25728051       0.00000000 </v>
     <v>       0.00000000       0.00000000       0.03273619 </v>
    </varray>
   </crystal>
   <varray name="positions" >
    <v>       0.50000000       0.50000000       0.06361964 </v>
    <v>       0.50000000       0.50000000       0.19085893 </v>
    <v>       0.50000000       0.50000000       0.31595907 </v>
    <v>       0.50000000       0.50000000       0.44894773 </v>
    <v>       0.00000000       0.00000000       0.00000000 </v>
    <v>       0.00000000       0.00000000       0.12723929 </v>
    <v>       0.00000000       0.00000000       0.25445950 </v>
    <v>       0.00000000       0.00000000       0.38350498 </v>
    <v>       0.50000000       0.00000000       0.00000000 </v>
    <v>       0.50000000       0.00000000       0.12723929 </v>
    <v>       0.50000000       0.00000000       0.25671047 </v>
    <v>       0.50000000       0.00000000       0.39632741 </v>
    <v>       0.00000000       0.50000000       0.00000000 </v>
    <v>       0.00000000       0.50000000       0.12723929 </v>
    <v>       0.00000000       0.50000000       0.25671047 </v>
    <v>       0.00000000       0.50000000       0.39632741 </v>
    <v>       0.00000000       0.00000000       0.06361964 </v>
    <v>       0.00000000       0.00000000       0.19085893 </v>
    <v>       0.00000000       0.00000000       0.32208677 </v>
    <v>       0.00000000       0.00000000       0.47084308 </v>
    <v>       0.00000000       0.00000000       0.51717364 </v>
   </varray>
  </structure>
  <varray name="forces" >
   <v>       0.00000000       0.00000000      -0.33500651 </v>
   <v>       0.00000000       0.00000000      -0.10716661 </v>
   <v>       0.00000000       0.00000000      -0.00004102 </v>
   <v>       0.00000000       0.00000000       0.03615435 </v>
   <v>       0.00000000       0.00000000       0.27873319 </v>
   <v>       0.00000000       0.00000000      -0.20770128 </v>
   <v>       0.00000000       0.00000000       0.02784687 </v>
   <v>       0.00000000       0.00000000       0.01964215 </v>
   <v>       0.00000000       0.00000000      -0.27812339 </v>
   <v>       0.00000000       0.00000000       0.07588784 </v>
   <v>       0.00000000       0.00000000      -0.00367775 </v>
   <v>       0.00000000       0.00000000      -0.00242229 </v>
   <v>       0.00000000       0.00000000      -0.27812339 </v>
   <v>       0.00000000       0.00000000       0.07588784 </v>
   <v>       0.00000000       0.00000000      -0.00367775 </v>
   <v>       0.00000000       0.00000000      -0.00242229 </v>
   <v>       0.00000000       0.00000000       0.32535180 </v>
   <v>       0.00000000       0.00000000       0.28561795 </v>
   <v>       0.00000000       0.00000000       0.07032895 </v>
   <v>       0.00000000       0.00000000       0.02387428 </v>
   <v>       0.00000000       0.00000000      -0.00096294 </v>
  </varray>
  <energy>
   <i name="e_fr_energy">   -128.58248996 </i>
   <i name="e_wo_entrp">   -128.56984845 </i>
   <i name="e_0_energy">     -0.02528302 </i>
  </energy>
  <time name="totalsc">   17.48   18.34</time>
 </calculation>
 <calculation>
  <scstep>
   <time name="dav">    4.41    4.42</time>
   <time name="total">    4.99    5.00</time>
   <dipole>
    <v name="dipole">      0.00000000       0.00000000       0.00617231 </v>
    <i name="Tr[quadrupol]">   -495.38984321 </i>
    <i name="Echarged">      0.00000000 </i>
    <i name="Edipol_quadrupol">      0.00000000 </i>
    <i name="Eion">      0.00000000 </i>
   </dipole>
   <energy>
    <i name="alphaZ">    627.40066085 </i>
    <i name="ewald">  84643.31126448 </i>
    <i name="hartreedc">-101749.21682002 </i>
    <i name="XCdc">    792.64505864 </i>
    <i name="pawpsdc">  14166.01186862 </i>
    <i name="pawaedc"> -14518.18809586 </i>
    <i name="eentropy">     -0.02779786 </i>
    <i name="bandstr">  -2931.30172595 </i>
    <i name="atom">  18840.78653830 </i>
    <i name="e_fr_energy">   -128.57904881 </i>
    <i name="e_wo_entrp">   -128.55125095 </i>
    <i name="e_0_energy">   -128.56514988 </i>
   </energy>
  </scstep>
  <scstep>
   <time name="diag">    0.61    0.61</time>
   <time name="diis">    1.73    1.74</time>
   <time name="orth">    0.14    0.14</time>
   <time name="total">    3.05    3.06</time>
   <dipole>
    <v name="dipole">      0.00000000       0.00000000       0.08167086 </v>
    <i name="Tr[quadrupol]">   -495.14995917 </i>
    <i name="Echarged">      0.00000000 </i>
    <i name="Edipol_quadrupol">      0.00000000 </i>
    <i name="Eion">      0.00000000 </i>
   </dipole>
   <energy>
    <i name="e_fr_energy">   -129.10077247 </i>
    <i name="e_wo_entrp">   -129.09342001 </i>
    <i name="e_0_energy">   -129.09709624 </i>
   </energy>
  </scstep>
  <scstep>
   <time name="diag">    0.61    0.61</time>
   <time name="diis">    1.64    1.64</time>
   <time name="orth">    0.14    0.14</time>
   <time name="total">    2.96    2.96</time>
   <dipole>
    <v name="dipole">      0.00000000       0.00000000       0.00436037 </v>
    <i name="Tr[quadrupol]">   -495.24645324 </i>
    <i name="Echarged">      0.00000000 </i>
    <i name="Edipol_quadrupol">      0.00000000 </i>
    <i name="Eion">      0.00000000 </i>
   </dipole>
   <energy>
    <i name="e_fr_energy">   -128.56126725 </i>
    <i name="e_wo_entrp">   -128.53799702 </i>
    <i name="e_0_energy">   -128.54963213 </i>
   </energy>
  </scstep>
  <scstep>
   <time name="diag">    0.61    0.61</time>
   <time name="diis">    1.57    1.57</time>
   <time name="orth">    0.14    0.14</time>
   <time name="total">    2.89    2.90</time>
   <dipole>
    <v name="dipole">      0.00000000       0.00000000       0.00992019 </v>
    <i name="Tr[quadrupol]">   -495.42437482 </i>
    <i name="Echarged">      0.00000000 </i>
    <i name="Edipol_quadrupol">      0.00000000 </i>
    <i name="Eion">      0.00000000 </i>
   </dipole>
   <energy>
    <i name="e_fr_energy">   -128.58017789 </i>
    <i name="e_wo_entrp">   -128.55882194 </i>
    <i name="e_0_energy">   -128.56949992 </i>
   </energy>
  </scstep>
  <scstep>
   <time name="diag">    0.61    0.61</time>
   <time name="diis">    1.46    1.47</time>
   <time name="orth">    0.14    0.14</time>
   <time name="total">    2.78    2.79</time>
   <dipole>
    <v name="dipole">      0.00000000       0.00000000       0.00709169 </v>
    <i name="Tr[quadrupol]">   -495.44307672 </i>
    <i name="Echarged">      0.00000000 </i>
    <i name="Edipol_quadrupol">      0.00000000 </i>
    <i name="Eion">      0.00000000 </i>
   </dipole>
   <energy>
    <i name="e_fr_energy">   -128.58338348 </i>
    <i name="e_wo_entrp">   -128.55356438 </i>
    <i name="e_0_energy">   -128.56847393 </i>
   </energy>
  </scstep>
  <scstep>
   <time name="diag">    0.61    0.61</time>
   <time name="diis">    1.38    1.39</time>
   <time name="orth">    0.14    0.14</time>
   <time name="total">    2.70    2.71</time>
   <dipole>
    <v name="dipole">      0.00000000       0.00000000       0.00937529 </v>
    <i name="Tr[quadrupol]">   -495.41433474 </i>
    <i name="Echarged">      0.00000000 </i>
    <i name="Edipol_quadrupol">      0.00000000 </i>
    <i name="Eion">      0.00000000 </i>
   </dipole>
   <energy>
    <i name="e_fr_energy">   -128.58115479 </i>
    <i name="e_wo_entrp">   -128.55974262 </i>
    <i name="e_0_energy">   -128.57044871 </i>
   </energy>
  </scstep>
  <scstep>
   <time name="diag">    0.61    0.61</time>
   <time name="diis">    1.24    1.24</time>
   <time name="orth">    0.14    0.14</time>
   <time name="total">    2.56    2.57</time>
   <dipole>
    <v name="dipole">      0.00000000       0.00000000       0.00916778 </v>
    <i name="Tr[quadrupol]">   -495.42818583 </i>
    <i name="Echarged">      0.00000000 </i>
    <i name="Edipol_quadrupol">      0.00000000 </i>
    <i name="Eion">      0.00000000 </i>
   </dipole>
   <energy>
    <i name="e_fr_energy">   -128.58169929 </i>
    <i name="e_wo_entrp">   -128.55984633 </i>
    <i name="e_0_energy">   -128.57077281 </i>
   </energy>
  </scstep>
  <scstep>
   <time name="diag">    0.61    0.61</time>
   <time name="diis">    1.13    1.14</time>
   <time name="orth">    0.14    0.14</time>
   <time name="total">    2.46    2.46</time>
   <dipole>
    <v name="dipole">      0.00000000       0.00000000       0.00716997 </v>
    <i name="Tr[quadrupol]">   -495.40063426 </i>
    <i name="Echarged">      0.00000000 </i>
    <i name="Edipol_quadrupol">      0.00000000 </i>
    <i name="Eion">      0.00000000 </i>
   </dipole>
   <energy>
    <i name="e_fr_energy">   -128.58075884 </i>
    <i name="e_wo_entrp">   -128.55536780 </i>
    <i name="e_0_energy">   -128.56806332 </i>
   </energy>
  </scstep>
  <scstep>
   <time name="diag">    0.61    0.61</time>
   <time name="diis">    1.08    1.08</time>
   <time name="orth">    0.14    0.14</time>
   <time name="total">    2.40    2.41</time>
   <dipole>
    <v name="dipole">      0.00000000       0.00000000       0.00666208 </v>
    <i name="Tr[quadrupol]">   -495.39851427 </i>
    <i name="Echarged">      0.00000000 </i>
    <i name="Edipol_quadrupol">      0.00000000 </i>
    <i name="Eion">      0.00000000 </i>
   </dipole>
   <energy>
    <i name="e_fr_energy">   -128.58143165 </i>
    <i name="e_wo_entrp">   -128.55509439 </i>
    <i name="e_0_energy">   -128.56826302 </i>
   </energy>
  </scstep>
  <scstep>
   <time name="diag">    0.61    0.61</time>
   <time name="diis">    1.00    1.00</time>
   <time name="orth">    0.14    0.14</time>
   <time name="total">    2.16    2.17</time>
   <dipole>
    <v name="dipole">      0.00000000       0.00000000       0.00701247 </v>
    <i name="Tr[quadrupol]">   -495.39325987 </i>
    <i name="Echarged">      0.00000000 </i>
    <i name="Edipol_quadrupol">      0.00000000 </i>
    <i name="Eion">      0.00000000 </i>
   </dipole>
   <energy>
    <i name="alphaZ">    627.57313949 </i>
    <i name="ewald">  84643.31126448 </i>
    <i name="hartreedc">-101749.05514797 </i>
    <i name="XCdc">    792.63909282 </i>
    <i name="pawpsdc">  14165.62194860 </i>
    <i name="pawaedc"> -14517.81144651 </i>
    <i name="eentropy">     -0.02558791 </i>
    <i name="bandstr">  -2931.62124001 </i>
    <i name="atom">  18840.78653830 </i>
    <i name="e_fr_energy">   -128.58143871 </i>
    <i name="e_wo_entrp">   -128.55585080 </i>
    <i name="e_0_energy">   -128.56864476 </i>
   </energy>
  </scstep>
  <structure>
   <crystal>
    <varray name="basis" >
     <v>       3.88680817       0.00000000       0.00000000 </v>
     <v>       0.00000000       3.88680817       0.00000000 </v>
     <v>       0.00000000       0.00000000      30.54723268 </v>
    </varray>
    <i name="volume">    461.48552838 </i>
    <varray name="rec_basis" >
     <v>       0.25728051       0.00000000       0.00000000 </v>
     <v>       0.00000000       0.25728051       0.00000000 </v>
     <v>       0.00000000       0.00000000       0.03273619 </v>
    </varray>
   </crystal>
   <varray name="positions" >
    <v>       0.50000000       0.50000000       0.06361964 </v>
    <v>       0.50000000       0.50000000       0.19085893 </v>
    <v>       0.50000000       0.50000000       0.31585879 </v>
    <v>       0.50000000       0.50000000       0.44883739 </v>
    <v>       0.00000000       0.00000000       0.00000000 </v>
    <v>       0.00000000       0.00000000       0.12723929 </v>
    <v>       0.00000000       0.00000000       0.25455098 </v>
    <v>       0.00000000       0.00000000       0.38349901 </v>
    <v>       0.50000000       0.00000000       0.00000000 </v>
    <v>       0.50000000       0.00000000       0.12723929 </v>
    <v>       0.50000000       0.00000000       0.25664252 </v>
    <v>       0.50000000       0.00000000       0.39606840 </v>
    <v>       0.00000000       0.50000000       0.00000000 </v>
    <v>       0.00000000       0.50000000       0.12723929 </v>
    <v>       0.00000000       0.50000000       0.25664252 </v>
    <v>       0.00000000       0.50000000       0.39606840 </v>
    <v>       0.00000000       0.00000000       0.06361964 </v>
    <v>       0.00000000       0.00000000       0.19085893 </v>
    <v>       0.00000000       0.00000000       0.32209374 </v>
    <v>       0.00000000       0.00000000       0.47061184 </v>
    <v>       0.00000000       0.00000000       0.51704553 </v>
   </varray>
  </structure>
  <varray name="forces" >
   <v>       0.00000000       0.00000000      -0.34289539 </v>
   <v>       0.00000000       0.00000000      -0.10292899 </v>
   <v>       0.00000000       0.00000000       0.03263742 </v>
   <v>       0.00000000       0.00000000       0.02351347 </v>
   <v>       0.00000000       0.00000000       0.27886793 </v>
   <v>       0.00000000       0.00000000      -0.19376787 </v>
   <v>       0.00000000       0.00000000      -0.02051927 </v>
   <v>       0.00000000       0.00000000      -0.00414893 </v>
   <v>       0.00000000       0.00000000      -0.27534449 </v>
   <v>       0.00000000       0.00000000       0.07322381 </v>
   <v>       0.00000000       0.00000000       0.01132744 </v>
   <v>       0.00000000       0.00000000       0.02926334 </v>
   <v>       0.00000000       0.00000000      -0.27534449 </v>
   <v>       0.00000000       0.00000000       0.07322381 </v>
   <v>       0.00000000       0.00000000       0.01132744 </v>
   <v>       0.00000000       0.00000000       0.02926334 </v>
   <v>       0.00000000       0.00000000       0.32722031 </v>
   <v>       0.00000000       0.00000000       0.29022770 </v>
   <v>       0.00000000       0.00000000       0.02421880 </v>
   <v>       0.00000000       0.00000000       0.11982852 </v>
   <v>       0.00000000       0.00000000      -0.10919389 </v>
  </varray>
  <energy>
   <i name="e_fr_energy">   -128.58143871 </i>
   <i name="e_wo_entrp">   -128.56864476 </i>
   <i name="e_0_energy">     -0.02558791 </i>
  </energy>
