unknown system                          
           1
     3.886808    0.000000    0.000000
     0.000000    3.886808    0.000000
     0.000000    0.000000   30.547233
   Sr   Fe   O 
   4   4  13
Direct configuration=     1
   0.50000000  0.50000000  0.06361964
   0.50000000  0.50000000  0.19085893
   0.50000000  0.50000000  0.31729296
   0.50000000  0.50000000  0.44997122
   0.00000000  0.00000000  0.00000000
   0.00000000  0.00000000  0.12723929
   0.00000000  0.00000000  0.25495084
   0.00000000  0.00000000  0.38379506
   0.50000000  0.00000000  0.00000000
   0.50000000  0.00000000  0.12723929
   0.50000000  0.00000000  0.25677013
   0.50000000  0.00000000  0.39519114
   0.00000000  0.50000000  0.00000000
   0.00000000  0.50000000  0.12723929
   0.00000000  0.50000000  0.25677013
   0.00000000  0.50000000  0.39519114
   0.00000000  0.00000000  0.06361964
   0.00000000  0.00000000  0.19085893
   0.00000000  0.00000000  0.32205375
   0.00000000  0.00000000  0.46722049
   0.00000000  0.00000000  0.51388076
Direct configuration=     2
   0.50000000  0.50000000  0.06361964
   0.50000000  0.50000000  0.19085893
   0.50000000  0.50000000  0.31723684
   0.50000000  0.50000000  0.44961556
   0.00000000  0.00000000  0.00000000
   0.00000000  0.00000000  0.12723929
   0.00000000  0.00000000  0.25489435
   0.00000000  0.00000000  0.38367766
   0.50000000  0.00000000  0.00000000
   0.50000000  0.00000000  0.12723929
   0.50000000  0.00000000  0.25677950
   0.50000000  0.00000000  0.39532646
   0.00000000  0.50000000  0.00000000
   0.00000000  0.50000000  0.12723929
   0.00000000  0.50000000  0.25677950
   0.00000000  0.50000000  0.39532646
   0.00000000  0.00000000  0.06361964
   0.00000000  0.00000000  0.19085893
   0.00000000  0.00000000  0.32213010
   0.00000000  0.00000000  0.46736558
   0.00000000  0.00000000  0.51394688
Direct configuration=     3
   0.50000000  0.50000000  0.06361964
   0.50000000  0.50000000  0.19085893
   0.50000000  0.50000000  0.31706846
   0.50000000  0.50000000  0.44854856
   0.00000000  0.00000000  0.00000000
   0.00000000  0.00000000  0.12723929
   0.00000000  0.00000000  0.25472486
   0.00000000  0.00000000  0.38332545
   0.50000000  0.00000000  0.00000000
   0.50000000  0.00000000  0.12723929
   0.50000000  0.00000000  0.25680760
   0.50000000  0.00000000  0.39573242
   0.00000000  0.50000000  0.00000000
   0.00000000  0.50000000  0.12723929
   0.00000000  0.50000000  0.25680760
   0.00000000  0.50000000  0.39573242
   0.00000000  0.00000000  0.06361964
   0.00000000  0.00000000  0.19085893
   0.00000000  0.00000000  0.32235915
   0.00000000  0.00000000  0.46780085
   0.00000000  0.00000000  0.51414527
Direct configuration=     4
   0.50000000  0.50000000  0.06361964
   0.50000000  0.50000000  0.19085893
   0.50000000  0.50000000  0.31711590
   0.50000000  0.50000000  0.44884916
   0.00000000  0.00000000  0.00000000
   0.00000000  0.00000000  0.12723929
   0.00000000  0.00000000  0.25477261
   0.00000000  0.00000000  0.38342468
   0.50000000  0.00000000  0.00000000
   0.50000000  0.00000000  0.12723929
   0.50000000  0.00000000  0.25679968
   0.50000000  0.00000000  0.39561805
   0.00000000  0.50000000  0.00000000
   0.00000000  0.50000000  0.12723929
   0.00000000  0.50000000  0.25679968
   0.00000000  0.50000000  0.39561805
   0.00000000  0.00000000  0.06361964
   0.00000000  0.00000000  0.19085893
   0.00000000  0.00000000  0.32229462
   0.00000000  0.00000000  0.46767823
   0.00000000  0.00000000  0.51408938
Direct configuration=     5
   0.50000000  0.50000000  0.06361964
   0.50000000  0.50000000  0.19085893
   0.50000000  0.50000000  0.31695397
   0.50000000  0.50000000  0.44853073
   0.00000000  0.00000000  0.00000000
   0.00000000  0.00000000  0.12723929
   0.00000000  0.00000000  0.25470765
   0.00000000  0.00000000  0.38354776
   0.50000000  0.00000000  0.00000000
   0.50000000  0.00000000  0.12723929
   0.50000000  0.00000000  0.25683875
   0.50000000  0.00000000  0.39567991
   0.00000000  0.50000000  0.00000000
   0.00000000  0.50000000  0.12723929
   0.00000000  0.50000000  0.25683875
   0.00000000  0.50000000  0.39567991
   0.00000000  0.00000000  0.06361964
   0.00000000  0.00000000  0.19085893
   0.00000000  0.00000000  0.32218071
   0.00000000  0.00000000  0.46784949
   0.00000000  0.00000000  0.51429330
Direct configuration=     6
   0.50000000  0.50000000  0.06361964
   0.50000000  0.50000000  0.19085893
   0.50000000  0.50000000  0.31694296
   0.50000000  0.50000000  0.44850908
   0.00000000  0.00000000  0.00000000
   0.00000000  0.00000000  0.12723929
   0.00000000  0.00000000  0.25470324
   0.00000000  0.00000000  0.38355613
   0.50000000  0.00000000  0.00000000
   0.50000000  0.00000000  0.12723929
   0.50000000  0.00000000  0.25684141
   0.50000000  0.00000000  0.39568412
   0.00000000  0.50000000  0.00000000
   0.00000000  0.50000000  0.12723929
   0.00000000  0.50000000  0.25684141
   0.00000000  0.50000000  0.39568412
   0.00000000  0.00000000  0.06361964
   0.00000000  0.00000000  0.19085893
   0.00000000  0.00000000  0.32217297
   0.00000000  0.00000000  0.46786113
   0.00000000  0.00000000  0.51430717
Direct configuration=     7
   0.50000000  0.50000000  0.06361964
   0.50000000  0.50000000  0.19085893
   0.50000000  0.50000000  0.31680915
   0.50000000  0.50000000  0.44858233
   0.00000000  0.00000000  0.00000000
   0.00000000  0.00000000  0.12723929
   0.00000000  0.00000000  0.25470772
   0.00000000  0.00000000  0.38359451
   0.50000000  0.00000000  0.00000000
   0.50000000  0.00000000  0.12723929
   0.50000000  0.00000000  0.25684708
   0.50000000  0.00000000  0.39563664
   0.00000000  0.50000000  0.00000000
   0.00000000  0.50000000  0.12723929
   0.00000000  0.50000000  0.25684708
   0.00000000  0.50000000  0.39563664
   0.00000000  0.00000000  0.06361964
   0.00000000  0.00000000  0.19085893
   0.00000000  0.00000000  0.32217440
   0.00000000  0.00000000  0.46786637
   0.00000000  0.00000000  0.51447060
Direct configuration=     8
   0.50000000  0.50000000  0.06361964
   0.50000000  0.50000000  0.19085893
   0.50000000  0.50000000  0.31680273
   0.50000000  0.50000000  0.44858585
   0.00000000  0.00000000  0.00000000
   0.00000000  0.00000000  0.12723929
   0.00000000  0.00000000  0.25470793
   0.00000000  0.00000000  0.38359636
   0.50000000  0.00000000  0.00000000
   0.50000000  0.00000000  0.12723929
   0.50000000  0.00000000  0.25684735
   0.50000000  0.00000000  0.39563436
   0.00000000  0.50000000  0.00000000
   0.00000000  0.50000000  0.12723929
   0.00000000  0.50000000  0.25684735
   0.00000000  0.50000000  0.39563436
   0.00000000  0.00000000  0.06361964
   0.00000000  0.00000000  0.19085893
   0.00000000  0.00000000  0.32217447
   0.00000000  0.00000000  0.46786662
   0.00000000  0.00000000  0.51447845
Direct configuration=     9
   0.50000000  0.50000000  0.06361964
   0.50000000  0.50000000  0.19085893
   0.50000000  0.50000000  0.31673382
   0.50000000  0.50000000  0.44863525
   0.00000000  0.00000000  0.00000000
   0.00000000  0.00000000  0.12723929
   0.00000000  0.00000000  0.25471511
   0.00000000  0.00000000  0.38361018
   0.50000000  0.00000000  0.00000000
   0.50000000  0.00000000  0.12723929
   0.50000000  0.00000000  0.25684741
   0.50000000  0.00000000  0.39560498
   0.00000000  0.50000000  0.00000000
   0.00000000  0.50000000  0.12723929
   0.00000000  0.50000000  0.25684741
   0.00000000  0.50000000  0.39560498
   0.00000000  0.00000000  0.06361964
   0.00000000  0.00000000  0.19085893
   0.00000000  0.00000000  0.32217561
   0.00000000  0.00000000  0.46792736
   0.00000000  0.00000000  0.51451404
Direct configuration=    10
   0.50000000  0.50000000  0.06361964
   0.50000000  0.50000000  0.19085893
   0.50000000  0.50000000  0.31652710
   0.50000000  0.50000000  0.44878346
   0.00000000  0.00000000  0.00000000
   0.00000000  0.00000000  0.12723929
   0.00000000  0.00000000  0.25473665
   0.00000000  0.00000000  0.38365166
   0.50000000  0.00000000  0.00000000
   0.50000000  0.00000000  0.12723929
   0.50000000  0.00000000  0.25684761
   0.50000000  0.00000000  0.39551685
   0.00000000  0.50000000  0.00000000
   0.00000000  0.50000000  0.12723929
   0.00000000  0.50000000  0.25684761
   0.00000000  0.50000000  0.39551685
   0.00000000  0.00000000  0.06361964
   0.00000000  0.00000000  0.19085893
   0.00000000  0.00000000  0.32217902
   0.00000000  0.00000000  0.46810957
   0.00000000  0.00000000  0.51462083
Direct configuration=    11
   0.50000000  0.50000000  0.06361964
   0.50000000  0.50000000  0.19085893
   0.50000000  0.50000000  0.31650103
   0.50000000  0.50000000  0.44880215
   0.00000000  0.00000000  0.00000000
   0.00000000  0.00000000  0.12723929
   0.00000000  0.00000000  0.25473937
   0.00000000  0.00000000  0.38365690
   0.50000000  0.00000000  0.00000000
   0.50000000  0.00000000  0.12723929
   0.50000000  0.00000000  0.25684764
   0.50000000  0.00000000  0.39550573
   0.00000000  0.50000000  0.00000000
   0.00000000  0.50000000  0.12723929
   0.00000000  0.50000000  0.25684764
   0.00000000  0.50000000  0.39550573
   0.00000000  0.00000000  0.06361964
   0.00000000  0.00000000  0.19085893
   0.00000000  0.00000000  0.32217946
   0.00000000  0.00000000  0.46813255
   0.00000000  0.00000000  0.51463430
Direct configuration=    12
   0.50000000  0.50000000  0.06361964
   0.50000000  0.50000000  0.19085893
   0.50000000  0.50000000  0.31644889
   0.50000000  0.50000000  0.44883953
   0.00000000  0.00000000  0.00000000
   0.00000000  0.00000000  0.12723929
   0.00000000  0.00000000  0.25474480
   0.00000000  0.00000000  0.38366736
   0.50000000  0.00000000  0.00000000
   0.50000000  0.00000000  0.12723929
   0.50000000  0.00000000  0.25684769
   0.50000000  0.00000000  0.39548350
   0.00000000  0.50000000  0.00000000
   0.00000000  0.50000000  0.12723929
   0.00000000  0.50000000  0.25684769
   0.00000000  0.50000000  0.39548350
   0.00000000  0.00000000  0.06361964
   0.00000000  0.00000000  0.19085893
   0.00000000  0.00000000  0.32218032
   0.00000000  0.00000000  0.46817851
   0.00000000  0.00000000  0.51466123
Direct configuration=    13
   0.50000000  0.50000000  0.06361964
   0.50000000  0.50000000  0.19085893
   0.50000000  0.50000000  0.31642408
   0.50000000  0.50000000  0.44883493
   0.00000000  0.00000000  0.00000000
   0.00000000  0.00000000  0.12723929
   0.00000000  0.00000000  0.25475115
   0.00000000  0.00000000  0.38362545
   0.50000000  0.00000000  0.00000000
   0.50000000  0.00000000  0.12723929
   0.50000000  0.00000000  0.25683739
   0.50000000  0.00000000  0.39549082
   0.00000000  0.50000000  0.00000000
   0.00000000  0.50000000  0.12723929
   0.00000000  0.50000000  0.25683739
   0.00000000  0.50000000  0.39549082
   0.00000000  0.00000000  0.06361964
   0.00000000  0.00000000  0.19085893
   0.00000000  0.00000000  0.32216901
   0.00000000  0.00000000  0.46829458
   0.00000000  0.00000000  0.51467746
Direct configuration=    14
   0.50000000  0.50000000  0.06361964
   0.50000000  0.50000000  0.19085893
   0.50000000  0.50000000  0.31642241
   0.50000000  0.50000000  0.44883462
   0.00000000  0.00000000  0.00000000
   0.00000000  0.00000000  0.12723929
   0.00000000  0.00000000  0.25475157
   0.00000000  0.00000000  0.38362263
   0.50000000  0.00000000  0.00000000
   0.50000000  0.00000000  0.12723929
   0.50000000  0.00000000  0.25683670
   0.50000000  0.00000000  0.39549132
   0.00000000  0.50000000  0.00000000
   0.00000000  0.50000000  0.12723929
   0.00000000  0.50000000  0.25683670
   0.00000000  0.50000000  0.39549132
   0.00000000  0.00000000  0.06361964
   0.00000000  0.00000000  0.19085893
   0.00000000  0.00000000  0.32216825
   0.00000000  0.00000000  0.46830241
   0.00000000  0.00000000  0.51467855
Direct configuration=    15
   0.50000000  0.50000000  0.06361964
   0.50000000  0.50000000  0.19085893
   0.50000000  0.50000000  0.31642023
   0.50000000  0.50000000  0.44880839
   0.00000000  0.00000000  0.00000000
   0.00000000  0.00000000  0.12723929
   0.00000000  0.00000000  0.25475148
   0.00000000  0.00000000  0.38356924
   0.50000000  0.00000000  0.00000000
   0.50000000  0.00000000  0.12723929
   0.50000000  0.00000000  0.25682402
   0.50000000  0.00000000  0.39551683
   0.00000000  0.50000000  0.00000000
   0.00000000  0.50000000  0.12723929
   0.00000000  0.50000000  0.25682402
   0.00000000  0.50000000  0.39551683
   0.00000000  0.00000000  0.06361964
   0.00000000  0.00000000  0.19085893
   0.00000000  0.00000000  0.32215124
   0.00000000  0.00000000  0.46835231
   0.00000000  0.00000000  0.51475214
Direct configuration=    16
   0.50000000  0.50000000  0.06361964
   0.50000000  0.50000000  0.19085893
   0.50000000  0.50000000  0.31641370
   0.50000000  0.50000000  0.44872973
   0.00000000  0.00000000  0.00000000
   0.00000000  0.00000000  0.12723929
   0.00000000  0.00000000  0.25475119
   0.00000000  0.00000000  0.38340909
   0.50000000  0.00000000  0.00000000
   0.50000000  0.00000000  0.12723929
   0.50000000  0.00000000  0.25678597
   0.50000000  0.00000000  0.39559336
   0.00000000  0.50000000  0.00000000
   0.00000000  0.50000000  0.12723929
   0.00000000  0.50000000  0.25678597
   0.00000000  0.50000000  0.39559336
   0.00000000  0.00000000  0.06361964
   0.00000000  0.00000000  0.19085893
   0.00000000  0.00000000  0.32210021
   0.00000000  0.00000000  0.46850200
   0.00000000  0.00000000  0.51497289
Direct configuration=    17
   0.50000000  0.50000000  0.06361964
   0.50000000  0.50000000  0.19085893
   0.50000000  0.50000000  0.31641129
   0.50000000  0.50000000  0.44870077
   0.00000000  0.00000000  0.00000000
   0.00000000  0.00000000  0.12723929
   0.00000000  0.00000000  0.25475108
   0.00000000  0.00000000  0.38335015
   0.50000000  0.00000000  0.00000000
   0.50000000  0.00000000  0.12723929
   0.50000000  0.00000000  0.25677197
   0.50000000  0.00000000  0.39562153
   0.00000000  0.50000000  0.00000000
   0.00000000  0.50000000  0.12723929
   0.00000000  0.50000000  0.25677197
   0.00000000  0.50000000  0.39562153
   0.00000000  0.00000000  0.06361964
   0.00000000  0.00000000  0.19085893
   0.00000000  0.00000000  0.32208143
   0.00000000  0.00000000  0.46855709
   0.00000000  0.00000000  0.51505413
Direct configuration=    18
   0.50000000  0.50000000  0.06361964
   0.50000000  0.50000000  0.19085893
   0.50000000  0.50000000  0.31640710
   0.50000000  0.50000000  0.44867295
   0.00000000  0.00000000  0.00000000
   0.00000000  0.00000000  0.12723929
   0.00000000  0.00000000  0.25473313
   0.00000000  0.00000000  0.38332455
   0.50000000  0.00000000  0.00000000
   0.50000000  0.00000000  0.12723929
   0.50000000  0.00000000  0.25676062
   0.50000000  0.00000000  0.39564388
   0.00000000  0.50000000  0.00000000
   0.00000000  0.50000000  0.12723929
   0.00000000  0.50000000  0.25676062
   0.00000000  0.50000000  0.39564388
   0.00000000  0.00000000  0.06361964
   0.00000000  0.00000000  0.19085893
   0.00000000  0.00000000  0.32204844
   0.00000000  0.00000000  0.46865023
   0.00000000  0.00000000  0.51511670
Direct configuration=    19
   0.50000000  0.50000000  0.06361964
   0.50000000  0.50000000  0.19085893
   0.50000000  0.50000000  0.31639451
   0.50000000  0.50000000  0.44858948
   0.00000000  0.00000000  0.00000000
   0.00000000  0.00000000  0.12723929
   0.00000000  0.00000000  0.25467928
   0.00000000  0.00000000  0.38324777
   0.50000000  0.00000000  0.00000000
   0.50000000  0.00000000  0.12723929
   0.50000000  0.00000000  0.25672658
   0.50000000  0.00000000  0.39571095
   0.00000000  0.50000000  0.00000000
   0.00000000  0.50000000  0.12723929
   0.00000000  0.50000000  0.25672658
   0.00000000  0.50000000  0.39571095
   0.00000000  0.00000000  0.06361964
   0.00000000  0.00000000  0.19085893
   0.00000000  0.00000000  0.32194946
   0.00000000  0.00000000  0.46892963
   0.00000000  0.00000000  0.51530442
Direct configuration=    20
   0.50000000  0.50000000  0.06361964
   0.50000000  0.50000000  0.19085893
   0.50000000  0.50000000  0.31639058
   0.50000000  0.50000000  0.44856344
   0.00000000  0.00000000  0.00000000
   0.00000000  0.00000000  0.12723929
   0.00000000  0.00000000  0.25466249
   0.00000000  0.00000000  0.38322382
   0.50000000  0.00000000  0.00000000
   0.50000000  0.00000000  0.12723929
   0.50000000  0.00000000  0.25671596
   0.50000000  0.00000000  0.39573187
   0.00000000  0.50000000  0.00000000
   0.00000000  0.50000000  0.12723929
   0.00000000  0.50000000  0.25671596
   0.00000000  0.50000000  0.39573187
   0.00000000  0.00000000  0.06361964
   0.00000000  0.00000000  0.19085893
   0.00000000  0.00000000  0.32191859
   0.00000000  0.00000000  0.46901679
   0.00000000  0.00000000  0.51536297
Direct configuration=    21
   0.50000000  0.50000000  0.06361964
   0.50000000  0.50000000  0.19085893
   0.50000000  0.50000000  0.31635796
   0.50000000  0.50000000  0.44854352
   0.00000000  0.00000000  0.00000000
   0.00000000  0.00000000  0.12723929
   0.00000000  0.00000000  0.25460287
   0.00000000  0.00000000  0.38323925
   0.50000000  0.00000000  0.00000000
   0.50000000  0.00000000  0.12723929
   0.50000000  0.00000000  0.25670632
   0.50000000  0.00000000  0.39574495
   0.00000000  0.50000000  0.00000000
   0.00000000  0.50000000  0.12723929
   0.00000000  0.50000000  0.25670632
   0.00000000  0.50000000  0.39574495
   0.00000000  0.00000000  0.06361964
   0.00000000  0.00000000  0.19085893
   0.00000000  0.00000000  0.32189609
   0.00000000  0.00000000  0.46913220
   0.00000000  0.00000000  0.51550596
Direct configuration=    22
   0.50000000  0.50000000  0.06361964
   0.50000000  0.50000000  0.19085893
   0.50000000  0.50000000  0.31629992
   0.50000000  0.50000000  0.44850806
   0.00000000  0.00000000  0.00000000
   0.00000000  0.00000000  0.12723929
   0.00000000  0.00000000  0.25449679
   0.00000000  0.00000000  0.38326670
   0.50000000  0.00000000  0.00000000
   0.50000000  0.00000000  0.12723929
   0.50000000  0.00000000  0.25668915
   0.50000000  0.00000000  0.39576822
   0.00000000  0.50000000  0.00000000
   0.00000000  0.50000000  0.12723929
   0.00000000  0.50000000  0.25668915
   0.00000000  0.50000000  0.39576822
   0.00000000  0.00000000  0.06361964
   0.00000000  0.00000000  0.19085893
   0.00000000  0.00000000  0.32185605
   0.00000000  0.00000000  0.46933759
   0.00000000  0.00000000  0.51576041
Direct configuration=    23
   0.50000000  0.50000000  0.06361964
   0.50000000  0.50000000  0.19085893
   0.50000000  0.50000000  0.31627986
   0.50000000  0.50000000  0.44849581
   0.00000000  0.00000000  0.00000000
   0.00000000  0.00000000  0.12723929
   0.00000000  0.00000000  0.25446013
   0.00000000  0.00000000  0.38327618
   0.50000000  0.00000000  0.00000000
   0.50000000  0.00000000  0.12723929
   0.50000000  0.00000000  0.25668322
   0.50000000  0.00000000  0.39577626
   0.00000000  0.50000000  0.00000000
   0.00000000  0.50000000  0.12723929
   0.00000000  0.50000000  0.25668322
   0.00000000  0.50000000  0.39577626
   0.00000000  0.00000000  0.06361964
   0.00000000  0.00000000  0.19085893
   0.00000000  0.00000000  0.32184221
   0.00000000  0.00000000  0.46940856
   0.00000000  0.00000000  0.51584833
Direct configuration=    24
   0.50000000  0.50000000  0.06361964
   0.50000000  0.50000000  0.19085893
   0.50000000  0.50000000  0.31624774
   0.50000000  0.50000000  0.44849095
   0.00000000  0.00000000  0.00000000
   0.00000000  0.00000000  0.12723929
   0.00000000  0.00000000  0.25442591
   0.00000000  0.00000000  0.38328673
   0.50000000  0.00000000  0.00000000
   0.50000000  0.00000000  0.12723929
   0.50000000  0.00000000  0.25667566
   0.50000000  0.00000000  0.39578080
   0.00000000  0.50000000  0.00000000
   0.00000000  0.50000000  0.12723929
   0.00000000  0.50000000  0.25667566
   0.00000000  0.50000000  0.39578080
   0.00000000  0.00000000  0.06361964
   0.00000000  0.00000000  0.19085893
   0.00000000  0.00000000  0.32184722
   0.00000000  0.00000000  0.46951915
   0.00000000  0.00000000  0.51592700
Direct configuration=    25
   0.50000000  0.50000000  0.06361964
   0.50000000  0.50000000  0.19085893
   0.50000000  0.50000000  0.31622812
   0.50000000  0.50000000  0.44848798
   0.00000000  0.00000000  0.00000000
   0.00000000  0.00000000  0.12723929
   0.00000000  0.00000000  0.25440500
   0.00000000  0.00000000  0.38329317
   0.50000000  0.00000000  0.00000000
   0.50000000  0.00000000  0.12723929
   0.50000000  0.00000000  0.25667104
   0.50000000  0.00000000  0.39578358
   0.00000000  0.50000000  0.00000000
   0.00000000  0.50000000  0.12723929
   0.00000000  0.50000000  0.25667104
   0.00000000  0.50000000  0.39578358
   0.00000000  0.00000000  0.06361964
   0.00000000  0.00000000  0.19085893
   0.00000000  0.00000000  0.32185027
   0.00000000  0.00000000  0.46958671
   0.00000000  0.00000000  0.51597506
Direct configuration=    26
   0.50000000  0.50000000  0.06361964
   0.50000000  0.50000000  0.19085893
   0.50000000  0.50000000  0.31618887
   0.50000000  0.50000000  0.44848203
   0.00000000  0.00000000  0.00000000
   0.00000000  0.00000000  0.12723929
   0.00000000  0.00000000  0.25436319
   0.00000000  0.00000000  0.38330606
   0.50000000  0.00000000  0.00000000
   0.50000000  0.00000000  0.12723929
   0.50000000  0.00000000  0.25666180
   0.50000000  0.00000000  0.39578913
   0.00000000  0.50000000  0.00000000
   0.00000000  0.50000000  0.12723929
   0.00000000  0.50000000  0.25666180
   0.00000000  0.50000000  0.39578913
   0.00000000  0.00000000  0.06361964
   0.00000000  0.00000000  0.19085893
   0.00000000  0.00000000  0.32185639
   0.00000000  0.00000000  0.46972184
   0.00000000  0.00000000  0.51607118
Direct configuration=    27
   0.50000000  0.50000000  0.06361964
   0.50000000  0.50000000  0.19085893
   0.50000000  0.50000000  0.31622104
   0.50000000  0.50000000  0.44848690
   0.00000000  0.00000000  0.00000000
   0.00000000  0.00000000  0.12723929
   0.00000000  0.00000000  0.25439746
   0.00000000  0.00000000  0.38329550
   0.50000000  0.00000000  0.00000000
   0.50000000  0.00000000  0.12723929
   0.50000000  0.00000000  0.25666937
   0.50000000  0.00000000  0.39578458
   0.00000000  0.50000000  0.00000000
   0.00000000  0.50000000  0.12723929
   0.00000000  0.50000000  0.25666937
   0.00000000  0.50000000  0.39578458
   0.00000000  0.00000000  0.06361964
   0.00000000  0.00000000  0.19085893
   0.00000000  0.00000000  0.32185138
   0.00000000  0.00000000  0.46961110
   0.00000000  0.00000000  0.51599240
Direct configuration=    28
   0.50000000  0.50000000  0.06361964
   0.50000000  0.50000000  0.19085893
   0.50000000  0.50000000  0.31620495
   0.50000000  0.50000000  0.44848447
   0.00000000  0.00000000  0.00000000
   0.00000000  0.00000000  0.12723929
   0.00000000  0.00000000  0.25438032
   0.00000000  0.00000000  0.38330078
   0.50000000  0.00000000  0.00000000
   0.50000000  0.00000000  0.12723929
   0.50000000  0.00000000  0.25666558
   0.50000000  0.00000000  0.39578686
   0.00000000  0.50000000  0.00000000
   0.00000000  0.50000000  0.12723929
   0.00000000  0.50000000  0.25666558
   0.00000000  0.50000000  0.39578686
   0.00000000  0.00000000  0.06361964
   0.00000000  0.00000000  0.19085893
   0.00000000  0.00000000  0.32185389
   0.00000000  0.00000000  0.46966647
   0.00000000  0.00000000  0.51603179
Direct configuration=    29
   0.50000000  0.50000000  0.06361964
   0.50000000  0.50000000  0.19085893
   0.50000000  0.50000000  0.31619752
   0.50000000  0.50000000  0.44848334
   0.00000000  0.00000000  0.00000000
   0.00000000  0.00000000  0.12723929
   0.00000000  0.00000000  0.25437241
   0.00000000  0.00000000  0.38330322
   0.50000000  0.00000000  0.00000000
   0.50000000  0.00000000  0.12723929
   0.50000000  0.00000000  0.25666383
   0.50000000  0.00000000  0.39578791
   0.00000000  0.50000000  0.00000000
   0.00000000  0.50000000  0.12723929
   0.00000000  0.50000000  0.25666383
   0.00000000  0.50000000  0.39578791
   0.00000000  0.00000000  0.06361964
   0.00000000  0.00000000  0.19085893
   0.00000000  0.00000000  0.32185504
   0.00000000  0.00000000  0.46969206
   0.00000000  0.00000000  0.51604999
Direct configuration=    30
   0.50000000  0.50000000  0.06361964
   0.50000000  0.50000000  0.19085893
   0.50000000  0.50000000  0.31619319
   0.50000000  0.50000000  0.44848269
   0.00000000  0.00000000  0.00000000
   0.00000000  0.00000000  0.12723929
   0.00000000  0.00000000  0.25436780
   0.00000000  0.00000000  0.38330464
   0.50000000  0.00000000  0.00000000
   0.50000000  0.00000000  0.12723929
   0.50000000  0.00000000  0.25666281
   0.50000000  0.00000000  0.39578852
   0.00000000  0.50000000  0.00000000
   0.00000000  0.50000000  0.12723929
   0.00000000  0.50000000  0.25666281
   0.00000000  0.50000000  0.39578852
   0.00000000  0.00000000  0.06361964
   0.00000000  0.00000000  0.19085893
   0.00000000  0.00000000  0.32185572
   0.00000000  0.00000000  0.46970695
   0.00000000  0.00000000  0.51606059
Direct configuration=    31
   0.50000000  0.50000000  0.06361964
   0.50000000  0.50000000  0.19085893
   0.50000000  0.50000000  0.31619103
   0.50000000  0.50000000  0.44848236
   0.00000000  0.00000000  0.00000000
   0.00000000  0.00000000  0.12723929
   0.00000000  0.00000000  0.25436549
   0.00000000  0.00000000  0.38330535
   0.50000000  0.00000000  0.00000000
   0.50000000  0.00000000  0.12723929
   0.50000000  0.00000000  0.25666230
   0.50000000  0.00000000  0.39578883
   0.00000000  0.50000000  0.00000000
   0.00000000  0.50000000  0.12723929
   0.00000000  0.50000000  0.25666230
   0.00000000  0.50000000  0.39578883
   0.00000000  0.00000000  0.06361964
   0.00000000  0.00000000  0.19085893
   0.00000000  0.00000000  0.32185606
   0.00000000  0.00000000  0.46971440
   0.00000000  0.00000000  0.51606589
Direct configuration=    32
   0.50000000  0.50000000  0.06361964
   0.50000000  0.50000000  0.19085893
   0.50000000  0.50000000  0.31618995
   0.50000000  0.50000000  0.44848220
   0.00000000  0.00000000  0.00000000
   0.00000000  0.00000000  0.12723929
   0.00000000  0.00000000  0.25436434
   0.00000000  0.00000000  0.38330571
   0.50000000  0.00000000  0.00000000
   0.50000000  0.00000000  0.12723929
   0.50000000  0.00000000  0.25666205
   0.50000000  0.00000000  0.39578898
   0.00000000  0.50000000  0.00000000
   0.00000000  0.50000000  0.12723929
   0.00000000  0.50000000  0.25666205
   0.00000000  0.50000000  0.39578898
   0.00000000  0.00000000  0.06361964
   0.00000000  0.00000000  0.19085893
   0.00000000  0.00000000  0.32185622
   0.00000000  0.00000000  0.46971812
   0.00000000  0.00000000  0.51606853
Direct configuration=    33
   0.50000000  0.50000000  0.06361964
   0.50000000  0.50000000  0.19085893
   0.50000000  0.50000000  0.31618941
   0.50000000  0.50000000  0.44848212
   0.00000000  0.00000000  0.00000000
   0.00000000  0.00000000  0.12723929
   0.00000000  0.00000000  0.25436377
   0.00000000  0.00000000  0.38330588
   0.50000000  0.00000000  0.00000000
   0.50000000  0.00000000  0.12723929
   0.50000000  0.00000000  0.25666192
   0.50000000  0.00000000  0.39578906
   0.00000000  0.50000000  0.00000000
   0.00000000  0.50000000  0.12723929
   0.00000000  0.50000000  0.25666192
   0.00000000  0.50000000  0.39578906
   0.00000000  0.00000000  0.06361964
   0.00000000  0.00000000  0.19085893
   0.00000000  0.00000000  0.32185631
   0.00000000  0.00000000  0.46971998
   0.00000000  0.00000000  0.51606986
Direct configuration=    34
   0.50000000  0.50000000  0.06361964
   0.50000000  0.50000000  0.19085893
   0.50000000  0.50000000  0.31618914
   0.50000000  0.50000000  0.44848207
   0.00000000  0.00000000  0.00000000
   0.00000000  0.00000000  0.12723929
   0.00000000  0.00000000  0.25436348
   0.00000000  0.00000000  0.38330597
   0.50000000  0.00000000  0.00000000
   0.50000000  0.00000000  0.12723929
   0.50000000  0.00000000  0.25666186
   0.50000000  0.00000000  0.39578909
   0.00000000  0.50000000  0.00000000
   0.00000000  0.50000000  0.12723929
   0.00000000  0.50000000  0.25666186
   0.00000000  0.50000000  0.39578909
   0.00000000  0.00000000  0.06361964
   0.00000000  0.00000000  0.19085893
   0.00000000  0.00000000  0.32185635
   0.00000000  0.00000000  0.46972091
   0.00000000  0.00000000  0.51607052
Direct configuration=    35
   0.50000000  0.50000000  0.06361964
   0.50000000  0.50000000  0.19085893
   0.50000000  0.50000000  0.31618926
   0.50000000  0.50000000  0.44848209
   0.00000000  0.00000000  0.00000000
   0.00000000  0.00000000  0.12723929
   0.00000000  0.00000000  0.25436361
   0.00000000  0.00000000  0.38330593
   0.50000000  0.00000000  0.00000000
   0.50000000  0.00000000  0.12723929
   0.50000000  0.00000000  0.25666189
   0.50000000  0.00000000  0.39578908
   0.00000000  0.50000000  0.00000000
   0.00000000  0.50000000  0.12723929
   0.00000000  0.50000000  0.25666189
   0.00000000  0.50000000  0.39578908
   0.00000000  0.00000000  0.06361964
   0.00000000  0.00000000  0.19085893
   0.00000000  0.00000000  0.32185633
   0.00000000  0.00000000  0.46972049
   0.00000000  0.00000000  0.51607022
Direct configuration=    36
   0.50000000  0.50000000  0.06361964
   0.50000000  0.50000000  0.19085893
   0.50000000  0.50000000  0.31618920
   0.50000000  0.50000000  0.44848208
   0.00000000  0.00000000  0.00000000
   0.00000000  0.00000000  0.12723929
   0.00000000  0.00000000  0.25436355
   0.00000000  0.00000000  0.38330595
   0.50000000  0.00000000  0.00000000
   0.50000000  0.00000000  0.12723929
   0.50000000  0.00000000  0.25666187
   0.50000000  0.00000000  0.39578908
   0.00000000  0.50000000  0.00000000
   0.00000000  0.50000000  0.12723929
   0.00000000  0.50000000  0.25666187
   0.00000000  0.50000000  0.39578908
   0.00000000  0.00000000  0.06361964
   0.00000000  0.00000000  0.19085893
   0.00000000  0.00000000  0.32185634
   0.00000000  0.00000000  0.46972069
   0.00000000  0.00000000  0.51607036
Direct configuration=    37
   0.50000000  0.50000000  0.06361964