  32  32   0   0
  0.1280000E+03  0.1600000E-08  0.1600000E-08  0.1600000E-08  0.1000000E-15
  1.000000000000000E-004
  CAR 
 Pt cube particle                        
      1.82213166    -13.83994998  301     -3.72917010      1.00000000
    -13.840  0.0000E+00  0.0000E+00
    -13.788  0.0000E+00  0.0000E+00
    -13.736  0.0000E+00  0.0000E+00
    -13.683  0.0000E+00  0.0000E+00
    -13.631  0.0000E+00  0.0000E+00
    -13.579  0.0000E+00  0.0000E+00
    -13.527  0.0000E+00  0.0000E+00
    -13.475 -0.4333E-29 -0.2262E-30
    -13.422 -0.2750E-27 -0.1458E-28
    -13.370 -0.1542E-25 -0.8195E-27
    -13.318 -0.7531E-24 -0.4013E-25
    -13.266 -0.3204E-22 -0.1713E-23
    -13.213 -0.1188E-20 -0.6372E-22
    -13.161 -0.3834E-19 -0.2065E-20
    -13.109 -0.1077E-17 -0.5831E-19
    -13.057 -0.2636E-16 -0.1434E-17
    -13.005 -0.5399E-15 -0.2962E-16
    -12.952 -0.1006E-13 -0.5550E-15
    -12.900 -0.1615E-12 -0.8988E-14
    -12.848 -0.2253E-11 -0.1266E-12
    -12.796 -0.2729E-10 -0.1551E-11
    -12.744 -0.2867E-09 -0.1652E-10
    -12.691 -0.2612E-08 -0.1529E-09
    -12.639 -0.2060E-07 -0.1228E-08
    -12.587 -0.1404E-06 -0.8559E-08
    -12.535 -0.8261E-06 -0.5169E-07
    -12.483 -0.4182E-05 -0.2700E-06
    -12.430 -0.1816E-04 -0.1218E-05
    -12.378 -0.6726E-04 -0.4729E-05
    -12.326 -0.2109E-03 -0.1574E-04
    -12.274 -0.5529E-03 -0.4461E-04
    -12.222 -0.1184E-02 -0.1064E-03
    -12.169 -0.1968E-02 -0.2091E-03
    -12.117 -0.2176E-02 -0.3228E-03
    -12.065 -0.2730E-03 -0.3370E-03
    -12.013  0.5572E-02 -0.4614E-04
    -11.961  0.1597E-01  0.7875E-03
    -11.908  0.2872E-01  0.2287E-02
    -11.856  0.3894E-01  0.4320E-02
    -11.804  0.4175E-01  0.6499E-02
    -11.752  0.3569E-01  0.8362E-02
    -11.699  0.2384E-01  0.9607E-02
    -11.647  0.1153E-01  0.1021E-01
    -11.595  0.2787E-02  0.1035E-01
    -11.543 -0.1373E-02  0.1028E-01
    -11.491 -0.2246E-02  0.1017E-01
    -11.438 -0.1679E-02  0.1008E-01
    -11.386 -0.9087E-03  0.1003E-01
    -11.334 -0.3913E-03  0.1001E-01
    -11.282 -0.1391E-03  0.1000E-01
    -11.230 -0.4158E-04  0.1000E-01
    -11.177 -0.1056E-04  0.1000E-01
    -11.125 -0.2319E-05  0.1000E-01
    -11.073 -0.6201E-06  0.1000E-01
    -11.021 -0.1275E-05  0.1000E-01
    -10.969 -0.6512E-05  0.1000E-01
    -10.916 -0.3012E-04  0.9998E-02
    -10.864 -0.1193E-03  0.9992E-02
    -10.812 -0.4015E-03  0.9971E-02
    -10.760 -0.1137E-02  0.9911E-02
    -10.708 -0.2661E-02  0.9773E-02
    -10.655 -0.4974E-02  0.9513E-02
    -10.603 -0.6797E-02  0.9158E-02
    -10.551 -0.4572E-02  0.8919E-02
    -10.499  0.7110E-02  0.9291E-02
    -10.446  0.3220E-01  0.1097E-01
    -10.394  0.6816E-01  0.1453E-01
    -10.342  0.1039E+00  0.1995E-01
    -10.290  0.1251E+00  0.2648E-01
    -10.238  0.1238E+00  0.3295E-01
    -10.185  0.1044E+00  0.3840E-01
    -10.133  0.7883E-01  0.4252E-01
    -10.081  0.5672E-01  0.4548E-01
    -10.029  0.4006E-01  0.4757E-01
     -9.977  0.2585E-01  0.4892E-01
     -9.924  0.1196E-01  0.4954E-01
     -9.872  0.1730E-03  0.4955E-01
     -9.820 -0.4654E-02  0.4931E-01
     -9.768  0.2925E-02  0.4946E-01
     -9.716  0.2561E-01  0.5080E-01
     -9.663  0.5962E-01  0.5391E-01
     -9.611  0.9389E-01  0.5881E-01
     -9.559  0.1161E+00  0.6487E-01
     -9.507  0.1226E+00  0.7127E-01
     -9.455  0.1231E+00  0.7770E-01
     -9.402  0.1319E+00  0.8459E-01
     -9.350  0.1538E+00  0.9261E-01
     -9.298  0.1789E+00  0.1020E+00
     -9.246  0.1918E+00  0.1120E+00
     -9.194  0.1858E+00  0.1217E+00
     -9.141  0.1667E+00  0.1304E+00
     -9.089  0.1447E+00  0.1379E+00
     -9.037  0.1246E+00  0.1444E+00
     -8.985  0.1057E+00  0.1499E+00
     -8.932  0.8918E-01  0.1546E+00
     -8.880  0.8160E-01  0.1589E+00
     -8.828  0.9052E-01  0.1636E+00
     -8.776  0.1173E+00  0.1697E+00
     -8.724  0.1559E+00  0.1778E+00
     -8.671  0.1981E+00  0.1882E+00
     -8.619  0.2385E+00  0.2006E+00
     -8.567  0.2742E+00  0.2150E+00
     -8.515  0.3012E+00  0.2307E+00
     -8.463  0.3126E+00  0.2470E+00
     -8.410  0.3034E+00  0.2628E+00
     -8.358  0.2751E+00  0.2772E+00
     -8.306  0.2363E+00  0.2895E+00
     -8.254  0.1959E+00  0.2998E+00
     -8.202  0.1564E+00  0.3079E+00
     -8.149  0.1146E+00  0.3139E+00
     -8.097  0.6935E-01  0.3175E+00
     -8.045  0.2744E-01  0.3190E+00
     -7.993  0.2596E-02  0.3191E+00
     -7.941  0.8852E-02  0.3196E+00
     -7.888  0.5215E-01  0.3223E+00
     -7.836  0.1231E+00  0.3287E+00
     -7.784  0.1960E+00  0.3389E+00
     -7.732  0.2412E+00  0.3515E+00
     -7.680  0.2441E+00  0.3643E+00
     -7.627  0.2183E+00  0.3757E+00
     -7.575  0.1965E+00  0.3859E+00
     -7.523  0.2067E+00  0.3967E+00
     -7.471  0.2509E+00  0.4098E+00
     -7.418  0.3046E+00  0.4257E+00
     -7.366  0.3350E+00  0.4432E+00
     -7.314  0.3270E+00  0.4603E+00
     -7.262  0.2959E+00  0.4757E+00
     -7.210  0.2753E+00  0.4901E+00
     -7.157  0.2881E+00  0.5052E+00
     -7.105  0.3236E+00  0.5220E+00
     -7.053  0.3444E+00  0.5400E+00
     -7.001  0.3179E+00  0.5566E+00
     -6.949  0.2450E+00  0.5694E+00
     -6.896  0.1599E+00  0.5778E+00
     -6.844  0.1042E+00  0.5832E+00
     -6.792  0.9831E-01  0.5883E+00
     -6.740  0.1335E+00  0.5953E+00
     -6.688  0.1853E+00  0.6050E+00
     -6.635  0.2341E+00  0.6172E+00
     -6.583  0.2743E+00  0.6315E+00
     -6.531  0.3092E+00  0.6477E+00
     -6.479  0.3377E+00  0.6653E+00
     -6.427  0.3487E+00  0.6835E+00
     -6.374  0.3297E+00  0.7007E+00
     -6.322  0.2814E+00  0.7154E+00
     -6.270  0.2228E+00  0.7270E+00
     -6.218  0.1781E+00  0.7363E+00
     -6.166  0.1565E+00  0.7445E+00
     -6.113  0.1470E+00  0.7522E+00
     -6.061  0.1336E+00  0.7591E+00
     -6.009  0.1148E+00  0.7651E+00
     -5.957  0.1073E+00  0.7707E+00
     -5.904  0.1296E+00  0.7775E+00
     -5.852  0.1829E+00  0.7870E+00
     -5.800  0.2476E+00  0.8000E+00
     -5.748  0.2964E+00  0.8154E+00
     -5.696  0.3149E+00  0.8319E+00
     -5.643  0.3115E+00  0.8481E+00
     -5.591  0.3091E+00  0.8643E+00
     -5.539  0.3255E+00  0.8813E+00
     -5.487  0.3581E+00  0.9000E+00
     -5.435  0.3838E+00  0.9200E+00
     -5.382  0.3749E+00  0.9396E+00
     -5.330  0.3199E+00  0.9563E+00
     -5.278  0.2353E+00  0.9686E+00
     -5.226  0.1597E+00  0.9769E+00
     -5.174  0.1325E+00  0.9838E+00
     -5.121  0.1703E+00  0.9927E+00
     -5.069  0.2573E+00  0.1006E+01
     -5.017  0.3577E+00  0.1025E+01
     -4.965  0.4396E+00  0.1048E+01
     -4.913  0.4929E+00  0.1074E+01
     -4.860  0.5270E+00  0.1101E+01
     -4.808  0.5524E+00  0.1130E+01
     -4.756  0.5655E+00  0.1159E+01
     -4.704  0.5503E+00  0.1188E+01
     -4.652  0.4954E+00  0.1214E+01
     -4.599  0.4073E+00  0.1235E+01
     -4.547  0.3099E+00  0.1251E+01
     -4.495  0.2324E+00  0.1264E+01
     -4.443  0.1958E+00  0.1274E+01
     -4.390  0.2063E+00  0.1285E+01
     -4.338  0.2558E+00  0.1298E+01
     -4.286  0.3249E+00  0.1315E+01
     -4.234  0.3887E+00  0.1335E+01
     -4.182  0.4252E+00  0.1357E+01
     -4.129  0.4260E+00  0.1380E+01
     -4.077  0.4030E+00  0.1401E+01
     -4.025  0.3853E+00  0.1421E+01
     -3.973  0.4055E+00  0.1442E+01
     -3.921  0.4795E+00  0.1467E+01
     -3.868  0.5927E+00  0.1498E+01
     -3.816  0.7026E+00  0.1535E+01
     -3.764  0.7588E+00  0.1574E+01
     -3.712  0.7273E+00  0.1612E+01
     -3.660  0.6064E+00  0.1644E+01
     -3.607  0.4286E+00  0.1666E+01
     -3.555  0.2444E+00  0.1679E+01
     -3.503  0.9803E-01  0.1684E+01
     -3.451  0.8912E-02  0.1685E+01
     -3.399 -0.2986E-01  0.1683E+01
     -3.346 -0.3826E-01  0.1681E+01
     -3.294 -0.3295E-01  0.1679E+01
     -3.242 -0.1805E-01  0.1678E+01
     -3.190  0.1331E-01  0.1679E+01
     -3.138  0.6851E-01  0.1683E+01
     -3.085  0.1423E+00  0.1690E+01
     -3.033  0.2114E+00  0.1701E+01
     -2.981  0.2452E+00  0.1714E+01
     -2.929  0.2261E+00  0.1726E+01
     -2.876  0.1646E+00  0.1734E+01
     -2.824  0.9323E-01  0.1739E+01
     -2.772  0.4614E-01  0.1742E+01
     -2.720  0.3953E-01  0.1744E+01
     -2.668  0.6550E-01  0.1747E+01
     -2.615  0.1001E+00  0.1752E+01
     -2.563  0.1186E+00  0.1758E+01
     -2.511  0.1095E+00  0.1764E+01
     -2.459  0.7840E-01  0.1768E+01
     -2.407  0.4117E-01  0.1770E+01
     -2.354  0.1184E-01  0.1771E+01
     -2.302 -0.4661E-02  0.1771E+01
     -2.250 -0.1150E-01  0.1770E+01
     -2.198 -0.1401E-01  0.1769E+01
     -2.146 -0.1406E-01  0.1769E+01
     -2.093 -0.7585E-02  0.1768E+01
     -2.041  0.1375E-01  0.1769E+01
     -1.989  0.5672E-01  0.1772E+01
     -1.937  0.1186E+00  0.1778E+01
     -1.885  0.1830E+00  0.1788E+01
     -1.832  0.2253E+00  0.1799E+01
     -1.780  0.2268E+00  0.1811E+01
     -1.728  0.1865E+00  0.1821E+01
     -1.676  0.1222E+00  0.1827E+01
     -1.624  0.5931E-01  0.1831E+01
     -1.571  0.1688E-01  0.1831E+01
     -1.519  0.6813E-03  0.1831E+01
     -1.467  0.4955E-02  0.1832E+01
     -1.415  0.1842E-01  0.1833E+01
     -1.362  0.3033E-01  0.1834E+01
     -1.310  0.3515E-01  0.1836E+01
     -1.258  0.3487E-01  0.1838E+01
     -1.206  0.3684E-01  0.1840E+01
     -1.154  0.4715E-01  0.1842E+01
     -1.101  0.6410E-01  0.1846E+01
     -1.049  0.7803E-01  0.1850E+01
     -0.997  0.7831E-01  0.1854E+01
     -0.945  0.6178E-01  0.1857E+01
     -0.893  0.3539E-01  0.1859E+01
     -0.840  0.1181E-01  0.1859E+01
     -0.788  0.2789E-02  0.1860E+01
     -0.736  0.1450E-01  0.1860E+01
     -0.684  0.4523E-01  0.1863E+01
     -0.632  0.8508E-01  0.1867E+01
     -0.579  0.1196E+00  0.1873E+01
     -0.527  0.1376E+00  0.1881E+01
     -0.475  0.1373E+00  0.1888E+01
     -0.423  0.1255E+00  0.1894E+01
     -0.371  0.1107E+00  0.1900E+01
     -0.318  0.9715E-01  0.1905E+01
     -0.266  0.8463E-01  0.1910E+01
     -0.214  0.7152E-01  0.1913E+01
     -0.162  0.5683E-01  0.1916E+01
     -0.110  0.4080E-01  0.1918E+01
     -0.057  0.2492E-01  0.1920E+01
     -0.005  0.1150E-01  0.1920E+01
      0.047  0.2451E-02  0.1920E+01
      0.099 -0.1926E-02  0.1920E+01
      0.152 -0.2885E-02  0.1920E+01
      0.204 -0.2221E-02  0.1920E+01
      0.256 -0.1260E-02  0.1920E+01
      0.308 -0.5727E-03  0.1920E+01
      0.360 -0.2153E-03  0.1920E+01
      0.413 -0.6809E-04  0.1920E+01
      0.465 -0.1829E-04  0.1920E+01
      0.517 -0.4202E-05  0.1920E+01
      0.569 -0.8285E-06  0.1920E+01
      0.621 -0.1407E-06  0.1920E+01
      0.674 -0.2062E-07  0.1920E+01
      0.726 -0.2614E-08  0.1920E+01
      0.778 -0.2869E-09  0.1920E+01
      0.830 -0.2730E-10  0.1920E+01
      0.882 -0.2254E-11  0.1920E+01
      0.935 -0.1615E-12  0.1920E+01
      0.987 -0.1008E-13  0.1920E+01
      1.039 -0.5104E-15  0.1920E+01
      1.091 -0.4253E-16  0.1920E+01
      1.143  0.0000E+00  0.1920E+01
      1.196  0.0000E+00  0.1920E+01
      1.248  0.0000E+00  0.1920E+01
      1.300  0.0000E+00  0.1920E+01
      1.352  0.0000E+00  0.1920E+01
      1.404  0.0000E+00  0.1920E+01
      1.457  0.0000E+00  0.1920E+01
      1.509  0.0000E+00  0.1920E+01
      1.561  0.0000E+00  0.1920E+01
      1.613  0.0000E+00  0.1920E+01
      1.666  0.0000E+00  0.1920E+01
      1.718  0.0000E+00  0.1920E+01
      1.770  0.0000E+00  0.1920E+01
      1.822  0.0000E+00  0.1920E+01
