   32   32  200    1
  0.1280000E+03  0.1600000E-08  0.1600000E-08  0.1600000E-08  0.1000000E-15
  1.000000000000000E-004
  CAR 
 Pt cube particle                        
    320      1    192
 
  0.0000000E+00  0.0000000E+00  0.0000000E+00  0.1000000E+01
    1      -11.839950   1.000000
    2      -10.304430   1.000000
    3      -10.304259   1.000000
    4      -10.303903   1.000000
    5      -10.069296   1.000000
    6       -9.570847   1.000000
    7       -9.569833   1.000000
    8       -9.568643   1.000000
    9       -9.316472   1.000000
   10       -9.316414   1.000000
   11       -9.315836   1.000000
   12       -9.229545   1.000000
   13       -9.229326   1.000000
   14       -9.059107   1.000000
   15       -9.058297   1.000000
   16       -8.965534   1.000000
   17       -8.742107   1.000000
   18       -8.740491   1.000000
   19       -8.740124   1.000000
   20       -8.590666   1.000000
   21       -8.589591   1.000000
   22       -8.589286   1.000000
   23       -8.554130   1.000000
   24       -8.457549   1.000000
   25       -8.457047   1.000000
   26       -8.455626   1.000000
   27       -8.389616   1.000000
   28       -8.388724   1.000000
   29       -8.388178   1.000000
   30       -8.210228   1.000000
   31       -8.210162   1.000000
   32       -8.209742   1.000000
   33       -7.750112   1.000000
   34       -7.749708   1.000000
   35       -7.748736   1.000000
   36       -7.740919   1.000000
   37       -7.738281   1.000000
   38       -7.737659   1.000000
   39       -7.544589   1.000000
   40       -7.543751   1.000000
   41       -7.409265   1.000000
   42       -7.408596   1.000000
   43       -7.408391   1.000000
   44       -7.388265   1.000000
   45       -7.388029   1.000000
   46       -7.386822   1.000000
   47       -7.297759   1.000000
   48       -7.297102   1.000000
   49       -7.296715   1.000000
   50       -7.094012   1.000000
   51       -7.093797   1.000000
   52       -7.093575   1.000000
   53       -7.091111   1.000000
   54       -7.068931   1.000000
   55       -7.068318   1.000000
   56       -7.019191   1.000000
   57       -7.018627   1.000000
   58       -7.018190   1.000000
   59       -6.725304   1.000000
   60       -6.724939   1.000000
   61       -6.724655   1.000000
   62       -6.632005   1.000000
   63       -6.631563   1.000000
   64       -6.567625   1.000000
   65       -6.503445   1.000000
   66       -6.503051   1.000000
   67       -6.502502   1.000000
   68       -6.385905   1.000000
   69       -6.384929   1.000000
   70       -6.384475   1.000000
   71       -6.384281   1.000000
   72       -6.383852   1.000000
   73       -6.383507   1.000000
   74       -6.126443   1.000000
   75       -6.125209   1.000000
   76       -6.124707   1.000000
   77       -6.108492   1.000000
   78       -5.859656   1.000000
   79       -5.859381   1.000000
   80       -5.765092   1.000000
   81       -5.764207   1.000000
   82       -5.762824   1.000000
   83       -5.719793   1.000000
   84       -5.719667   1.000000
   85       -5.719312   1.000000
   86       -5.631109   1.000000
   87       -5.542595   1.000000
   88       -5.540880   1.000000
   89       -5.540739   1.000000
   90       -5.459564   1.000000
   91       -5.458381   1.000000
   92       -5.457551   1.000000
   93       -5.401871   1.000000
   94       -5.401682   1.000000
   95       -5.350129   1.000000
   96       -5.349671   1.000000
   97       -5.349385   1.000000
   98       -5.347369   1.000000
   99       -5.091662   1.000000
  100       -5.091309   1.000000
  101       -5.018888   1.000000
  102       -5.018553   1.000000
  103       -5.018511   1.000000
  104       -4.987684   1.000000
  105       -4.986907   1.000000
  106       -4.986412   1.000000
  107       -4.925159   1.000000
  108       -4.924859   1.000000
  109       -4.924554   1.000000
  110       -4.889102   1.000000
  111       -4.797873   1.000000
  112       -4.797173   1.000000
  113       -4.796756   1.000000
  114       -4.779681   1.000000
  115       -4.779128   1.000000
  116       -4.766269   1.000000
  117       -4.765494   1.000000
  118       -4.765346   1.000000
  119       -4.688621   1.000000
  120       -4.688269   1.000000
  121       -4.688216   1.000000
  122       -4.644977   1.000000
  123       -4.644831   1.000000
  124       -4.644550   1.000000
  125       -4.581467   1.000000
  126       -4.581074   1.000000
  127       -4.431156   1.000004
  128       -4.431055   1.000004
  129       -4.430857   1.000004
  130       -4.286426   1.000293
  131       -4.268187   1.000464
  132       -4.267913   1.000467
  133       -4.251746   1.000689
  134       -4.251457   1.000694
  135       -4.250876   1.000703
  136       -4.159913   1.004716
  137       -4.159626   1.004741
  138       -4.159189   1.004779
  139       -4.156570   1.005010
  140       -4.073115   1.017696
  141       -4.073075   1.017705
  142       -4.072601   1.017806
  143       -4.041652   1.024806
  144       -4.041196   1.024911
  145       -3.896256   0.998564
  146       -3.895776   0.998022
  147       -3.895557   0.997773
  148       -3.868443   0.958598
  149       -3.868286   0.958321
  150       -3.867327   0.956616
  151       -3.846800   0.914626
  152       -3.846295   0.913460
  153       -3.845738   0.912165
  154       -3.824049   0.855713
  155       -3.823781   0.854942
  156       -3.746716   0.573929
  157       -3.746612   0.573493
  158       -3.740896   0.549523
  159       -3.737356   0.534607
  160       -3.737034   0.533245
  161       -3.736987   0.533050
  162       -3.711287   0.424665
  163       -3.711009   0.423502
  164       -3.710752   0.422430
  165       -3.677501   0.289252
  166       -3.677156   0.287948
  167       -3.676933   0.287104
  168       -3.626617   0.122973
  169       -3.012461  -0.000002
  170       -3.012094  -0.000002
  171       -3.011889  -0.000002
  172       -2.982716  -0.000001
  173       -2.982569  -0.000001
  174       -2.982069  -0.000001
  175       -2.588362   0.000000
  176       -2.588233   0.000000
  177       -2.588001   0.000000
  178       -1.874429   0.000000
  179       -1.874385   0.000000
  180       -1.873585   0.000000
  181       -1.786928   0.000000
  182       -1.786131   0.000000
  183       -1.785534   0.000000
  184       -1.351270   0.000000
  185       -1.043329   0.000000
  186       -1.043203   0.000000
  187       -0.572972   0.000000
  188       -0.572249   0.000000
  189       -0.569214   0.000000
  190       -0.391662   0.000000
  191       -0.338976   0.000000
  192       -0.177868   0.000000
