/opt/gridengine/default/spool/compute-0-10/job_scripts/6558338: line 13: mpirun: command not found
 running on    8 total cores
 distrk:  each k-point on    8 cores,    1 groups
 distr:  one band on    4 cores,    2 groups
 using from now: INCAR     
 vasp.5.4.1 24Jun15 (build Jan 06 2016 13:19:48) gamma-only                     
  
 POSCAR found :  1 types and      32 ions
 scaLAPACK will be used
 LDA part: xc-table for Ceperly-Alder, standard interpolation
 POSCAR found :  1 types and      32 ions
 POSCAR, INCAR and KPOINTS ok, starting setup
 WARNING: small aliasing (wrap around) errors must be expected
 FFT: planning ...
 WAVECAR not read
 entering main loop
       N       E                     dE             d eps       ncg     rms          rms(c)
RMM:   1     0.385292346865E+04    0.38529E+04   -0.61006E+04   192   0.696E+02
RMM:   2     0.204097234806E+04   -0.18120E+04   -0.19452E+04   192   0.174E+02
RMM:   3     0.112494666919E+04   -0.91603E+03   -0.10718E+04   192   0.130E+02
RMM:   4     0.545184949695E+03   -0.57976E+03   -0.60500E+03   192   0.126E+02
RMM:   5     0.234754529367E+03   -0.31043E+03   -0.27591E+03   192   0.851E+01
RMM:   6     0.575882696397E+02   -0.17717E+03   -0.14546E+03   192   0.767E+01
RMM:   7    -0.209100790629E+02   -0.78498E+02   -0.68797E+02   192   0.515E+01
RMM:   8    -0.784262938505E+02   -0.57516E+02   -0.42308E+02   192   0.550E+01
RMM:   9    -0.134278673932E+03   -0.55852E+02   -0.50455E+02   548   0.339E+01
RMM:  10    -0.147622768403E+03   -0.13344E+02   -0.11884E+02   594   0.990E+00
RMM:  11    -0.152217761597E+03   -0.45950E+01   -0.35078E+01   616   0.433E+00
RMM:  12    -0.154000452889E+03   -0.17827E+01   -0.12141E+01   624   0.205E+00    0.197E+01
RMM:  13    -0.154344309569E+03   -0.34386E+00   -0.93076E+01   480   0.213E+01    0.163E+01
RMM:  14    -0.146909033220E+03    0.74353E+01   -0.20655E+01   410   0.115E+01    0.101E+01
RMM:  15    -0.147039129900E+03   -0.13010E+00   -0.11410E+01   466   0.649E+00    0.946E+00
RMM:  16    -0.146755215760E+03    0.28391E+00   -0.51814E+00   469   0.402E+00    0.105E+01
RMM:  17    -0.145737185544E+03    0.10180E+01   -0.20321E+00   453   0.239E+00    0.506E+00
RMM:  18    -0.145554828402E+03    0.18236E+00   -0.93826E-01   452   0.153E+00    0.306E+00
RMM:  19    -0.145634121811E+03   -0.79293E-01   -0.46095E-01   447   0.117E+00    0.388E+00
RMM:  20    -0.145565263591E+03    0.68858E-01   -0.21471E-01   424   0.988E-01    0.284E+00
RMM:  21    -0.145633675722E+03   -0.68412E-01   -0.19320E-01   417   0.978E-01    0.379E+00
RMM:  22    -0.145618212463E+03    0.15463E-01   -0.11566E-01   416   0.793E-01    0.342E+00
RMM:  23    -0.145504725216E+03    0.11349E+00   -0.76174E-02   392   0.750E-01    0.114E+00
RMM:  24    -0.145496534088E+03    0.81911E-02   -0.28347E-02   410   0.412E-01    0.111E+00
RMM:  25    -0.145491877226E+03    0.46569E-02   -0.14932E-02   411   0.298E-01    0.983E-01
RMM:  26    -0.145482076365E+03    0.98009E-02   -0.98695E-03   393   0.260E-01    0.714E-01
RMM:  27    -0.145475020844E+03    0.70555E-02   -0.56097E-03   390   0.200E-01    0.353E-01
RMM:  28    -0.145469987455E+03    0.50334E-02   -0.39066E-03   392   0.162E-01    0.283E-01
RMM:  29    -0.145466710664E+03    0.32768E-02   -0.22517E-03   407   0.113E-01    0.217E-01
RMM:  30    -0.145465628579E+03    0.10821E-02   -0.84286E-04   344   0.738E-02    0.198E-01
RMM:  31    -0.145464581320E+03    0.10473E-02   -0.76598E-04   325   0.731E-02    0.137E-01
RMM:  32    -0.145464307216E+03    0.27410E-03   -0.61781E-04   299   0.650E-02    0.136E-01
RMM:  33    -0.145465228198E+03   -0.92098E-03   -0.70812E-04   303   0.643E-02    0.949E-02
RMM:  34    -0.145466724252E+03   -0.14961E-02   -0.69727E-04   289   0.548E-02    0.865E-02
RMM:  35    -0.145468124537E+03   -0.14003E-02   -0.84984E-04   296   0.513E-02    0.657E-02
RMM:  36    -0.145469017615E+03   -0.89308E-03   -0.68444E-04   281   0.431E-02    0.708E-02
RMM:  37    -0.145469648597E+03   -0.63098E-03   -0.74517E-04   286   0.436E-02    0.301E-02
RMM:  38    -0.145469953598E+03   -0.30500E-03   -0.27599E-04   237   0.297E-02    0.233E-02
RMM:  39    -0.145470313223E+03   -0.35962E-03   -0.17879E-04   230   0.262E-02    0.165E-02
RMM:  40    -0.145470467893E+03   -0.15467E-03   -0.83878E-05   213   0.184E-02    0.114E-02
RMM:  41    -0.145470779782E+03   -0.31189E-03   -0.10015E-04   208   0.194E-02    0.834E-03
RMM:  42    -0.145470916349E+03   -0.13657E-03   -0.39967E-05   177   0.124E-02    0.808E-03
RMM:  43    -0.145471091864E+03   -0.17551E-03   -0.41457E-05   187   0.133E-02    0.641E-03
RMM:  44    -0.145471147389E+03   -0.55525E-04   -0.21891E-05   155   0.934E-03
   1 F= -.14547115E+03 E0= -.14529122E+03  d E =-.145471E+03
 curvature:   0.00 expect dE= 0.000E+00 dE for cont linesearch  0.000E+00
 trial: gam= 0.00000 g(F)=  0.688E+00 g(S)=  0.000E+00 ort = 0.000E+00 (trialstep = 0.100E+01)
 search vector abs. value=  0.688E+00
 bond charge predicted
       N       E                     dE             d eps       ncg     rms          rms(c)
RMM:   1    -0.146069069576E+03   -0.59798E+00   -0.40564E+01   385   0.120E+01    0.119E+00
RMM:   2    -0.146332834922E+03   -0.26377E+00   -0.11279E+00   399   0.274E+00    0.366E+00
RMM:   3    -0.146173210318E+03    0.15962E+00   -0.21866E-01   455   0.104E+00    0.154E+00
RMM:   4    -0.146147964434E+03    0.25246E-01   -0.39717E-02   401   0.521E-01    0.760E-01
RMM:   5    -0.146142181960E+03    0.57825E-02   -0.91033E-03   395   0.256E-01    0.428E-01
RMM:   6    -0.146140029793E+03    0.21522E-02   -0.28071E-03   400   0.133E-01    0.354E-01
RMM:   7    -0.146140009325E+03    0.20469E-04   -0.12296E-03   397   0.839E-02    0.399E-01
RMM:   8    -0.146137444107E+03    0.25652E-02   -0.48832E-03   384   0.175E-01    0.652E-02
RMM:   9    -0.146137469015E+03   -0.24908E-04   -0.96264E-04   340   0.926E-02
   2 F= -.14613747E+03 E0= -.14596108E+03  d E =-.666322E+00
 ZBRENT: can't locate minimum, use default step
 trial-energy change:   -0.666322  1 .order   -0.667766   -0.687854   -0.647677
 step:   4.0000(harm= 17.1205)  dis= 0.05859  next Energy=  -151.359368 (dE=-0.589E+01)
 bond charge predicted
       N       E                     dE             d eps       ncg     rms          rms(c)
RMM:   1    -0.147037378798E+03   -0.89993E+00   -0.35478E+02   385   0.361E+01    0.718E+00
RMM:   2    -0.154141290893E+03   -0.71039E+01   -0.25264E+01   385   0.166E+01    0.164E+01
RMM:   3    -0.149052358255E+03    0.50889E+01   -0.41368E+00   385   0.585E+00    0.770E+00
RMM:   4    -0.148199545809E+03    0.85281E+00   -0.10195E+00   408   0.250E+00    0.480E+00
RMM:   5    -0.148016055856E+03    0.18349E+00   -0.43178E-01   413   0.162E+00    0.320E+00
RMM:   6    -0.147914372062E+03    0.10168E+00   -0.11778E-01   425   0.769E-01    0.227E+00
RMM:   7    -0.147890107959E+03    0.24264E-01   -0.26858E-02   461   0.319E-01    0.169E+00
RMM:   8    -0.147862872315E+03    0.27236E-01   -0.35220E-02   388   0.499E-01    0.120E+00
RMM:   9    -0.147851018401E+03    0.11854E-01   -0.21120E-02   417   0.345E-01    0.912E-01
RMM:  10    -0.147842651107E+03    0.83673E-02   -0.39567E-02   394   0.496E-01    0.559E-01
RMM:  11    -0.147843625809E+03   -0.97470E-03   -0.17007E-02   460   0.269E-01    0.529E-01
RMM:  12    -0.147842020134E+03    0.16057E-02   -0.22755E-03   432   0.106E-01    0.439E-01
RMM:  13    -0.147839225478E+03    0.27947E-02   -0.18981E-03   382   0.110E-01    0.209E-01
RMM:  14    -0.147838414219E+03    0.81126E-03   -0.15493E-03   380   0.962E-02    0.122E-01
RMM:  15    -0.147838422463E+03   -0.82436E-05   -0.28991E-04   242   0.489E-02
   3 F= -.14783842E+03 E0= -.14767880E+03  d E =-.236728E+01
 curvature:  -2.89 expect dE=-0.101E+01 dE for cont linesearch -0.973E+00
 ZBRENT: increasing intervall
 opt :  10.0000  next Energy=  -149.727670 (dE=-0.426E+01)
 bond charge predicted
       N       E                     dE             d eps       ncg     rms          rms(c)
RMM:   1    -0.143877698290E+03    0.39607E+01   -0.12438E+03   385   0.704E+01    0.207E+01
RMM:   2    -0.194718505214E+03   -0.50841E+02   -0.19907E+02   412   0.405E+01    0.347E+01
RMM:   3    -0.157668378769E+03    0.37050E+02   -0.29464E+01   384   0.163E+01    0.152E+01
RMM:   4    -0.153183904175E+03    0.44845E+01   -0.68228E+00   426   0.606E+00    0.130E+01
RMM:   5    -0.150901040356E+03    0.22829E+01   -0.34017E+00   409   0.437E+00    0.817E+00
RMM:   6    -0.150081324587E+03    0.81972E+00   -0.14026E+00   466   0.233E+00    0.595E+00
RMM:   7    -0.149841068735E+03    0.24026E+00   -0.24962E-01   485   0.888E-01    0.448E+00
RMM:   8    -0.149694080693E+03    0.14699E+00   -0.83252E-02   421   0.612E-01    0.395E+00
RMM:   9    -0.149614354112E+03    0.79727E-01   -0.54074E-02   426   0.518E-01    0.350E+00
RMM:  10    -0.149411254169E+03    0.20310E+00   -0.29754E-01   391   0.137E+00    0.203E+00
RMM:  11    -0.149376974267E+03    0.34280E-01   -0.15320E-01   469   0.776E-01    0.133E+00
RMM:  12    -0.149360659658E+03    0.16315E-01   -0.52563E-02   422   0.521E-01    0.451E-01
RMM:  13    -0.149360355456E+03    0.30420E-03   -0.13043E-02   458   0.243E-01    0.529E-01
RMM:  14    -0.149358630412E+03    0.17250E-02   -0.36200E-03   405   0.145E-01    0.379E-01
RMM:  15    -0.149357952688E+03    0.67772E-03   -0.22997E-03   387   0.126E-01    0.374E-01
RMM:  16    -0.149357713796E+03    0.23889E-03   -0.12580E-03   386   0.948E-02    0.369E-01
RMM:  17    -0.149356265945E+03    0.14479E-02   -0.90811E-04   364   0.894E-02    0.121E-01
RMM:  18    -0.149355846738E+03    0.41921E-03   -0.34409E-04   257   0.538E-02    0.749E-02
RMM:  19    -0.149355828412E+03    0.18326E-04   -0.21435E-04   219   0.401E-02
   4 F= -.14935583E+03 E0= -.14924550E+03  d E =-.388468E+01
 curvature:  -5.61 expect dE=-0.898E+00 dE for cont linesearch -0.441E-02
 trial: gam= 0.26646 g(F)=  0.160E+00 g(S)=  0.000E+00 ort =-0.233E-01 (trialstep = 0.280E+01)
 search vector abs. value=  0.196E+00
 bond charge predicted
       N       E                     dE             d eps       ncg     rms          rms(c)
RMM:   1    -0.149588356890E+03   -0.23251E+00   -0.87215E+01   385   0.183E+01    0.164E+00
RMM:   2    -0.150050145056E+03   -0.46179E+00   -0.22307E+00   403   0.419E+00    0.515E+00
RMM:   3    -0.149781385739E+03    0.26876E+00   -0.47635E-01   493   0.159E+00    0.138E+00
RMM:   4    -0.149755731523E+03    0.25654E-01   -0.57565E-02   393   0.657E-01    0.813E-01
RMM:   5    -0.149747356026E+03    0.83755E-02   -0.10000E-02   401   0.251E-01    0.541E-01
RMM:   6    -0.149751315859E+03   -0.39598E-02   -0.56372E-03   411   0.180E-01    0.947E-01
RMM:   7    -0.149743038506E+03    0.82774E-02   -0.11817E-02   390   0.273E-01    0.354E-01
RMM:   8    -0.149740247791E+03    0.27907E-02   -0.80231E-03   387   0.227E-01    0.204E-01
RMM:   9    -0.149740429832E+03   -0.18204E-03   -0.15965E-03   420   0.989E-02    0.242E-01
RMM:  10    -0.149740126698E+03    0.30313E-03   -0.45129E-04   273   0.592E-02    0.202E-01
RMM:  11    -0.149739770173E+03    0.35653E-03   -0.25247E-04   224   0.573E-02    0.979E-02
RMM:  12    -0.149739642133E+03    0.12804E-03   -0.19090E-04   215   0.424E-02    0.774E-02
RMM:  13    -0.149739594702E+03    0.47430E-04   -0.23981E-04   218   0.454E-02
   5 F= -.14973959E+03 E0= -.14960603E+03  d E =-.383766E+00
 trial-energy change:   -0.383766  1 .order   -0.380584   -0.430730   -0.330438
 step:   8.6173(harm= 12.0253)  dis= 0.06815  next Energy=  -150.111390 (dE=-0.756E+00)
 bond charge predicted
       N       E                     dE             d eps       ncg     rms          rms(c)
RMM:   1    -0.149676798171E+03    0.62844E-01   -0.37526E+02   385   0.385E+01    0.513E+00
RMM:   2    -0.153487127295E+03   -0.38103E+01   -0.16190E+01   384   0.131E+01    0.134E+01
RMM:   3    -0.150543427540E+03    0.29437E+01   -0.30963E+00   424   0.465E+00    0.456E+00
RMM:   4    -0.150267766245E+03    0.27566E+00   -0.66282E-01   427   0.191E+00    0.295E+00
RMM:   5    -0.150213347327E+03    0.54419E-01   -0.15092E-01   395   0.104E+00    0.215E+00
RMM:   6    -0.150200011478E+03    0.13336E-01   -0.35713E-02   419   0.464E-01    0.209E+00
RMM:   7    -0.150165404562E+03    0.34607E-01   -0.19396E-02   395   0.382E-01    0.124E+00
RMM:   8    -0.150155850354E+03    0.95542E-02   -0.64591E-02   394   0.652E-01    0.144E+00
RMM:   9    -0.150137207087E+03    0.18643E-01   -0.30688E-02   398   0.447E-01    0.431E-01
RMM:  10    -0.150136530105E+03    0.67698E-03   -0.11844E-02   403   0.281E-01    0.489E-01
RMM:  11    -0.150135652941E+03    0.87716E-03   -0.27850E-03   418   0.123E-01    0.445E-01
RMM:  12    -0.150134040699E+03    0.16122E-02   -0.12469E-03   386   0.955E-02    0.231E-01
RMM:  13    -0.150133369930E+03    0.67077E-03   -0.11811E-03   384   0.933E-02    0.170E-01
RMM:  14    -0.150132960551E+03    0.40938E-03   -0.84370E-04   376   0.777E-02    0.908E-02
RMM:  15    -0.150132899708E+03    0.60843E-04   -0.13403E-04   212   0.336E-02
   6 F= -.15013290E+03 E0= -.14996349E+03  d E =-.777071E+00
 curvature:  -6.63 expect dE=-0.289E+00 dE for cont linesearch -0.113E-02
 trial: gam= 0.21416 g(F)=  0.436E-01 g(S)=  0.000E+00 ort = 0.580E-02 (trialstep = 0.396E+01)
 search vector abs. value=  0.551E-01
 bond charge predicted
       N       E                     dE             d eps       ncg     rms          rms(c)
RMM:   1    -0.150194258749E+03   -0.61298E-01   -0.50043E+01   385   0.138E+01    0.112E+00
RMM:   2    -0.150413125666E+03   -0.21887E+00   -0.12261E+00   454   0.266E+00    0.344E+00
RMM:   3    -0.150298567791E+03    0.11456E+00   -0.19525E-01   440   0.112E+00    0.971E-01
RMM:   4    -0.150305923045E+03   -0.73553E-02   -0.30297E-02   416   0.422E-01    0.153E+00
RMM:   5    -0.150285085985E+03    0.20837E-01   -0.74032E-03   389   0.228E-01    0.455E-01
RMM:   6    -0.150282748578E+03    0.23374E-02   -0.72666E-03   390   0.214E-01    0.461E-01
RMM:   7    -0.150283087359E+03   -0.33878E-03   -0.75770E-03   401   0.201E-01    0.662E-01
RMM:   8    -0.150278970225E+03    0.41171E-02   -0.39216E-03   386   0.154E-01    0.271E-01
RMM:   9    -0.150278306277E+03    0.66395E-03   -0.13451E-03   387   0.986E-02    0.261E-01
RMM:  10    -0.150277999860E+03    0.30642E-03   -0.82969E-04   353   0.743E-02    0.167E-01
RMM:  11    -0.150277639929E+03    0.35993E-03   -0.28269E-04   223   0.524E-02    0.577E-02
RMM:  12    -0.150277623665E+03    0.16265E-04   -0.12630E-04   210   0.391E-02
   7 F= -.15027762E+03 E0= -.15009050E+03  d E =-.144724E+00
 trial-energy change:   -0.144724  1 .order   -0.145259   -0.177827   -0.112691
 step:  12.0266(harm= 10.8207)  dis= 0.04235  next Energy=  -150.387747 (dE=-0.255E+00)
 bond charge predicted
       N       E                     dE             d eps       ncg     rms          rms(c)
RMM:   1    -0.150039660885E+03    0.23798E+00   -0.20708E+02   385   0.283E+01    0.221E+00
RMM:   2    -0.150638148294E+03   -0.59849E+00   -0.51037E+00   385   0.689E+00    0.554E+00
RMM:   3    -0.150450719283E+03    0.18743E+00   -0.12381E+00   539   0.225E+00    0.235E+00
RMM:   4    -0.150458317164E+03   -0.75979E-02   -0.91743E-02   393   0.811E-01    0.275E+00
RMM:   5    -0.150400227323E+03    0.58090E-01   -0.33474E-02   389   0.481E-01    0.141E+00
RMM:   6    -0.150386656637E+03    0.13571E-01   -0.29122E-02   388   0.447E-01    0.975E-01
RMM:   7    -0.150379170700E+03    0.74859E-02   -0.51146E-02   394   0.539E-01    0.868E-01
RMM:   8    -0.150376115349E+03    0.30554E-02   -0.16683E-02   406   0.322E-01    0.827E-01
RMM:   9    -0.150372907018E+03    0.32083E-02   -0.80722E-03   398   0.225E-01    0.612E-01
RMM:  10    -0.150370741808E+03    0.21652E-02   -0.38962E-03   386   0.162E-01    0.452E-01
RMM:  11    -0.150368092282E+03    0.26495E-02   -0.21629E-03   384   0.119E-01    0.145E-01
RMM:  12    -0.150367921653E+03    0.17063E-03   -0.71975E-04   338   0.680E-02    0.156E-01
RMM:  13    -0.150368165735E+03   -0.24408E-03   -0.31290E-04   232   0.504E-02    0.201E-01
RMM:  14    -0.150368009082E+03    0.15665E-03   -0.30342E-04   227   0.590E-02    0.493E-02
RMM:  15    -0.150368115553E+03   -0.10647E-03   -0.13124E-04   213   0.367E-02    0.409E-02
RMM:  16    -0.150368310857E+03   -0.19530E-03   -0.76096E-05   211   0.279E-02    0.398E-02
RMM:  17    -0.150368481835E+03   -0.17098E-03   -0.46380E-05   211   0.209E-02    0.153E-02
RMM:  18    -0.150368609487E+03   -0.12765E-03   -0.26596E-05   205   0.146E-02    0.105E-02
RMM:  19    -0.150368936010E+03   -0.32652E-03   -0.52923E-05   210   0.137E-02    0.113E-02
RMM:  20    -0.150369067025E+03   -0.13101E-03   -0.27067E-05   187   0.111E-02    0.556E-03
RMM:  21    -0.150369347964E+03   -0.28094E-03   -0.68709E-05   179   0.128E-02    0.626E-03
RMM:  22    -0.150369413568E+03   -0.65604E-04   -0.27414E-05   151   0.108E-02
   8 F= -.15036941E+03 E0= -.15015935E+03  d E =-.236514E+00
 curvature:  -6.44 expect dE=-0.337E+00 dE for cont linesearch -0.464E-02
 trial: gam= 1.40738 g(F)=  0.523E-01 g(S)=  0.000E+00 ort =-0.630E-02 (trialstep = 0.214E+01)
 search vector abs. value=  0.144E+00
 bond charge predicted
       N       E                     dE             d eps       ncg     rms          rms(c)
RMM:   1    -0.150375876489E+03   -0.65285E-02   -0.38066E+01   385   0.120E+01    0.923E-01
RMM:   2    -0.150482081392E+03   -0.10620E+00   -0.88499E-01   431   0.234E+00    0.133E+00
RMM:   3    -0.150457627682E+03    0.24454E-01   -0.13307E-01   491   0.795E-01    0.700E-01
RMM:   4    -0.150455897977E+03    0.17297E-02   -0.14037E-02   407   0.297E-01    0.684E-01
RMM:   5    -0.150452672484E+03    0.32255E-02   -0.35979E-03   387   0.158E-01    0.562E-01
RMM:   6    -0.150450376165E+03    0.22963E-02   -0.19284E-03   388   0.116E-01    0.370E-01
RMM:   7    -0.150449069619E+03    0.13065E-02   -0.69429E-03   389   0.196E-01    0.430E-01
RMM:   8    -0.150447527676E+03    0.15419E-02   -0.30350E-03   398   0.127E-01    0.268E-01
RMM:   9    -0.150446601015E+03    0.92666E-03   -0.11031E-03   379   0.884E-02    0.803E-02
RMM:  10    -0.150446524023E+03    0.76993E-04   -0.18853E-04   219   0.398E-02
   9 F= -.15044652E+03 E0= -.15023485E+03  d E =-.771105E-01
 trial-energy change:   -0.077110  1 .order   -0.077903   -0.092824   -0.062982
 step:   6.6525(harm=  6.6525)  dis= 0.04380  next Energy=  -150.513779 (dE=-0.144E+00)
 bond charge predicted
       N       E                     dE             d eps       ncg     rms          rms(c)
RMM:   1    -0.150169147772E+03    0.27745E+00   -0.16876E+02   385   0.254E+01    0.229E+00
RMM:   2    -0.150881041610E+03   -0.71189E+00   -0.46655E+00   389   0.654E+00    0.429E+00
RMM:   3    -0.150587396538E+03    0.29365E+00   -0.10076E+00   531   0.211E+00    0.209E+00
RMM:   4    -0.150572685867E+03    0.14711E-01   -0.84808E-02   396   0.753E-01    0.224E+00
RMM:   5    -0.150541198483E+03    0.31487E-01   -0.28444E-02   402   0.413E-01    0.139E+00
RMM:   6    -0.150523554233E+03    0.17644E-01   -0.11555E-02   385   0.292E-01    0.782E-01
RMM:   7    -0.150530192876E+03   -0.66386E-02   -0.26328E-02   389   0.403E-01    0.127E+00
RMM:   8    -0.150519303201E+03    0.10890E-01   -0.24404E-02   392   0.385E-01    0.943E-01
RMM:   9    -0.150513375082E+03    0.59281E-02   -0.10692E-02   397   0.263E-01    0.688E-01
RMM:  10    -0.150509132532E+03    0.42426E-02   -0.48190E-03   389   0.181E-01    0.238E-01
RMM:  11    -0.150508115743E+03    0.10168E-02   -0.13245E-03   383   0.973E-02    0.167E-01
RMM:  12    -0.150508037919E+03    0.77825E-04   -0.33515E-04   248   0.499E-02
  10 F= -.15050804E+03 E0= -.15030271E+03  d E =-.138624E+00
 curvature: -11.01 expect dE=-0.172E+00 dE for cont linesearch -0.456E-04
 trial: gam=-0.07806 g(F)=  0.156E-01 g(S)=  0.000E+00 ort =-0.771E-03 (trialstep = 0.304E+01)
 search vector abs. value=  0.166E-01
 bond charge predicted
       N       E                     dE             d eps       ncg     rms          rms(c)
RMM:   1    -0.150523263739E+03   -0.15148E-01   -0.88861E+00   385   0.575E+00    0.501E-01
RMM:   2    -0.150583353647E+03   -0.60090E-01   -0.23228E-01   435   0.111E+00    0.176E+00
RMM:   3    -0.150551295887E+03    0.32058E-01   -0.39006E-02   410   0.518E-01    0.944E-01
RMM:   4    -0.150542589107E+03    0.87068E-02   -0.99872E-03   406   0.252E-01    0.400E-01
RMM:   5    -0.150540847981E+03    0.17411E-02   -0.33284E-03   395   0.146E-01    0.238E-01
RMM:   6    -0.150540075719E+03    0.77226E-03   -0.54162E-04   289   0.571E-02    0.154E-01
RMM:   7    -0.150539991347E+03    0.84372E-04   -0.19494E-04   219   0.427E-02
  11 F= -.15053999E+03 E0= -.15033663E+03  d E =-.319534E-01
 trial-energy change:   -0.031953  1 .order   -0.030982   -0.047629   -0.014334
 step:   4.1008(harm=  4.3509)  dis= 0.00969  next Energy=  -150.542529 (dE=-0.345E-01)
 bond charge predicted
       N       E                     dE             d eps       ncg     rms          rms(c)
RMM:   1    -0.150541413376E+03   -0.13377E-02   -0.10847E+00   385   0.202E+00    0.316E-01
RMM:   2    -0.150612595510E+03   -0.71182E-01   -0.46209E-02   425   0.476E-01    0.273E+00
RMM:   3    -0.150549169471E+03    0.63426E-01   -0.17596E-02   386   0.355E-01    0.421E-01
RMM:   4    -0.150543308246E+03    0.58612E-02   -0.57318E-03   391   0.204E-01    0.145E-01
RMM:   5    -0.150543048897E+03    0.25935E-03   -0.10704E-03   336   0.688E-02    0.146E-01
RMM:   6    -0.150542939444E+03    0.10945E-03   -0.20535E-04   227   0.437E-02    0.132E-01
RMM:   7    -0.150542811851E+03    0.12759E-03   -0.12495E-04   214   0.380E-02    0.776E-02
RMM:   8    -0.150542827350E+03   -0.15499E-04   -0.18934E-04   217   0.410E-02
  12 F= -.15054283E+03 E0= -.15034014E+03  d E =-.347894E-01
 curvature:  -2.22 expect dE=-0.677E-03 dE for cont linesearch -0.112E-03
 ZBRENT: extrapolating
 opt :   4.3565  next Energy=  -150.542945 (dE=-0.349E-01)
 bond charge predicted
       N       E                     dE             d eps       ncg     rms          rms(c)
RMM:   1    -0.150542770953E+03    0.40898E-04   -0.63354E-02   385   0.493E-01    0.453E-02
RMM:   2    -0.150543270412E+03   -0.49946E-03   -0.16074E-03   403   0.109E-01    0.193E-01
RMM:   3    -0.150543013848E+03    0.25656E-03   -0.23988E-04   218   0.450E-02    0.862E-02
RMM:   4    -0.150542914330E+03    0.99517E-04   -0.13767E-04   213   0.427E-02
  13 F= -.15054291E+03 E0= -.15034011E+03  d E =-.348764E-01
 curvature:  -2.32 expect dE=-0.796E-03 dE for cont linesearch -0.340E-04
 ZBRENT: bracketing found
 ZBRENT: interpolating
 opt :   4.2670  next Energy=  -150.542936 (dE=-0.349E-01)
 bond charge predicted
       N       E                     dE             d eps       ncg     rms          rms(c)
RMM:   1    -0.150542887058E+03    0.12679E-03   -0.73260E-03   383   0.168E-01    0.272E-02
RMM:   2    -0.150543083355E+03   -0.19630E-03   -0.22941E-04   221   0.451E-02    0.134E-01
RMM:   3    -0.150542924725E+03    0.15863E-03   -0.10892E-04   207   0.438E-02    0.277E-02
RMM:   4    -0.150542903614E+03    0.21111E-04   -0.31956E-05   201   0.171E-02
  14 F= -.15054290E+03 E0= -.15034008E+03  d E =-.348657E-01
 curvature:  -1.50 expect dE=-0.508E-03 dE for cont linesearch -0.291E-04
 ZBRENT: interpolating
 opt :   4.3148  next Energy=  -150.542925 (dE=-0.349E-01)
 bond charge predicted
       N       E                     dE             d eps       ncg     rms          rms(c)
RMM:   1    -0.150542910987E+03    0.13738E-04   -0.20784E-03   379   0.901E-02    0.161E-02
RMM:   2    -0.150543004799E+03   -0.93812E-04   -0.78622E-05   196   0.274E-02
  15 F= -.15054300E+03 E0= -.15034027E+03  d E =-.349669E-01
 curvature:  -0.53 expect dE=-0.169E-03 dE for cont linesearch -0.185E-05
 ZBRENT: interpolating
 opt :   4.2870  next Energy=  -150.543009 (dE=-0.350E-01)
 bond charge predicted
       N       E                     dE             d eps       ncg     rms          rms(c)
RMM:   1    -0.150542928412E+03   -0.17425E-04   -0.67227E-04   353   0.573E-02    0.325E-02
RMM:   2    -0.150543642191E+03   -0.71378E-03   -0.25381E-04   225   0.501E-02    0.286E-01
RMM:   3    -0.150543033115E+03    0.60908E-03   -0.16693E-04   218   0.561E-02    0.419E-02
RMM:   4    -0.150542915780E+03    0.11734E-03   -0.41970E-05   213   0.220E-02    0.110E-02
RMM:   5    -0.150542914424E+03    0.13559E-05   -0.87890E-06   190   0.107E-02
  16 F= -.15054291E+03 E0= -.15034012E+03  d E =-.348765E-01
 curvature:  -1.24 expect dE=-0.404E-03 dE for cont linesearch -0.617E-05
 ZBRENT: interpolating
 opt :   4.3022  next Energy=  -150.543006 (dE=-0.350E-01)
 bond charge predicted
       N       E                     dE             d eps       ncg     rms          rms(c)
RMM:   1    -0.150542916048E+03   -0.26828E-06   -0.19901E-04   196   0.289E-02    0.661E-03
RMM:   2    -0.150542938689E+03   -0.22641E-04   -0.21824E-05   195   0.153E-02
  17 F= -.15054294E+03 E0= -.15034012E+03  d E =-.349008E-01
 curvature:  -0.31 expect dE=-0.101E-03 dE for cont linesearch -0.132E-06
 ZBRENT: interpolating
 opt :   4.2969  next Energy=  -150.542939 (dE=-0.349E-01)
 bond charge predicted
       N       E                     dE             d eps       ncg     rms          rms(c)
RMM:   1    -0.150542920658E+03   -0.46096E-05   -0.24200E-05   191   0.159E-02    0.104E-02
RMM:   2    -0.150542981454E+03   -0.60796E-04   -0.24021E-05   195   0.160E-02
  18 F= -.15054298E+03 E0= -.15034021E+03  d E =-.349435E-01
 curvature:  -0.64 expect dE=-0.218E-03 dE for cont linesearch -0.297E-05
 ZBRENT: interpolating
 opt :   4.3009  next Energy=  -150.542939 (dE=-0.349E-01)
 bond charge predicted
       N       E                     dE             d eps       ncg     rms          rms(c)
RMM:   1    -0.150542929923E+03   -0.92655E-05   -0.26160E-05   194   0.195E-02    0.167E-02
RMM:   2    -0.150543076764E+03   -0.14684E-03   -0.58373E-05   203   0.244E-02    0.130E-01
RMM:   3    -0.150542948798E+03    0.12797E-03   -0.44269E-05   203   0.292E-02    0.302E-02
RMM:   4    -0.150542920876E+03    0.27922E-04   -0.10586E-05   195   0.112E-02
  19 F= -.15054292E+03 E0= -.15034011E+03  d E =-.348830E-01
 curvature:  -0.01 expect dE=-0.363E-05 dE for cont linesearch -0.813E-08
 ZBRENT: interpolating
 opt :   4.3016  next Energy=  -150.542939 (dE=-0.349E-01)
 bond charge predicted
       N       E                     dE             d eps       ncg     rms          rms(c)
RMM:   1    -0.150542919752E+03    0.29047E-04   -0.21161E-06   114   0.616E-03    0.363E-03
RMM:   2    -0.150542924190E+03   -0.44384E-05   -0.30651E-06   143   0.635E-03
  20 F= -.15054292E+03 E0= -.15034012E+03  d E =-.348863E-01
 curvature:  -0.03 expect dE=-0.102E-04 dE for cont linesearch -0.113E-07
 ZBRENT: interpolating
 opt :   4.3019  next Energy=  -150.542924 (dE=-0.349E-01)
 bond charge predicted
       N       E                     dE             d eps       ncg     rms          rms(c)
RMM:   1    -0.150542920479E+03   -0.72758E-06   -0.16315E-06   129   0.651E-03    0.367E-03
RMM:   2    -0.150542929904E+03   -0.94242E-05   -0.21036E-06    91   0.591E-03
  21 F= -.15054293E+03 E0= -.15034013E+03  d E =-.348920E-01
 curvature:  -0.03 expect dE=-0.895E-05 dE for cont linesearch -0.129E-07
 ZBRENT: interpolating
 opt :   4.3020  next Energy=  -150.542939 (dE=-0.349E-01)
 bond charge predicted
       N       E                     dE             d eps       ncg     rms          rms(c)
RMM:   1    -0.150542921520E+03   -0.10408E-05   -0.15247E-06   103   0.590E-03    0.420E-03
RMM:   2    -0.150542927617E+03   -0.60972E-05   -0.16359E-06    88   0.586E-03
  22 F= -.15054293E+03 E0= -.15034013E+03  d E =-.348897E-01
 curvature:  -0.01 expect dE=-0.399E-05 dE for cont linesearch -0.576E-08
 ZBRENT: interpolating
 opt :   4.3021  next Energy=  -150.542939 (dE=-0.349E-01)
 bond charge predicted
       N       E                     dE             d eps       ncg     rms          rms(c)
RMM:   1    -0.150542922095E+03   -0.57481E-06   -0.10901E-06    85   0.518E-03    0.840E-03
RMM:   2    -0.150542967396E+03   -0.45301E-04   -0.13657E-05   189   0.107E-02
  23 F= -.15054297E+03 E0= -.15034017E+03  d E =-.349295E-01
 curvature:  -0.01 expect dE=-0.199E-05 dE for cont linesearch -0.621E-08
 ZBRENT: interpolating
 opt :   4.3021  next Energy=  -150.542939 (dE=-0.349E-01)
 bond charge predicted
       N       E                     dE             d eps       ncg     rms          rms(c)
RMM:   1    -0.150542927782E+03   -0.56870E-05   -0.12761E-05   192   0.156E-02    0.131E-02
RMM:   2    -0.150542999097E+03   -0.71315E-04   -0.32781E-05   195   0.177E-02
  24 F= -.15054300E+03 E0= -.15034021E+03  d E =-.349612E-01
 curvature:   0.00 expect dE=-0.363E-06 dE for cont linesearch -0.121E-08
 ZBRENT: interpolating
 opt :   4.3021  next Energy=  -150.542939 (dE=-0.349E-01)
 bond charge predicted
       N       E                     dE             d eps       ncg     rms          rms(c)
RMM:   1    -0.150542938956E+03   -0.11174E-04   -0.24681E-05   197   0.217E-02    0.264E-02
RMM:   2    -0.150543347836E+03   -0.40888E-03   -0.13276E-04   209   0.350E-02    0.217E-01
RMM:   3    -0.150543000752E+03    0.34708E-03   -0.11333E-04   212   0.465E-02    0.444E-02
RMM:   4    -0.150542923128E+03    0.77625E-04   -0.27526E-05   207   0.180E-02
  25 F= -.15054292E+03 E0= -.15034013E+03  d E =-.348852E-01
 curvature:   0.00 expect dE=-0.123E-06 dE for cont linesearch -0.546E-09
 ZBRENT: interpolating
 opt :   4.3022  next Energy=  -150.542939 (dE=-0.349E-01)
 bond charge predicted
       N       E                     dE             d eps       ncg     rms          rms(c)
RMM:   1    -0.150542920910E+03    0.79842E-04   -0.58361E-06   184   0.880E-03    0.622E-03
RMM:   2    -0.150542933682E+03   -0.12772E-04   -0.84980E-06   185   0.964E-03
  26 F= -.15054293E+03 E0= -.15034014E+03  d E =-.348958E-01
 curvature:   0.00 expect dE=-0.336E-07 dE for cont linesearch -0.148E-09
 ZBRENT: interpolating
 opt :   4.3022  next Energy=  -150.542939 (dE=-0.349E-01)
 bond charge predicted
       N       E                     dE             d eps       ncg     rms          rms(c)
RMM:   1    -0.150542922108E+03   -0.11983E-05   -0.55143E-06   182   0.106E-02    0.465E-03
RMM:   2    -0.150542932656E+03   -0.10548E-04   -0.36491E-06   130   0.659E-03
  27 F= -.15054293E+03 E0= -.15034013E+03  d E =-.348947E-01
 curvature:   0.00 expect dE=-0.120E-07 dE for cont linesearch -0.593E-10
 ZBRENT: interpolating
 opt :   4.3022  next Energy=  -150.542939 (dE=-0.349E-01)
 bond charge predicted
       N       E                     dE             d eps       ncg     rms          rms(c)
RMM:   1    -0.150542922681E+03   -0.57303E-06   -0.28261E-06   127   0.719E-03    0.769E-03
RMM:   2    -0.150542951069E+03   -0.28388E-04   -0.10118E-05   180   0.975E-03
  28 F= -.15054295E+03 E0= -.15034017E+03  d E =-.349132E-01
 curvature:   0.00 expect dE=-0.368E-08 dE for cont linesearch -0.180E-10
 ZBRENT:  can not reach accuracy
 opt :   0.0000  next Energy=     0.000000 (dE= 0.151E+03)
 bond charge predicted
       N       E                     dE             d eps       ncg     rms          rms(c)
RMM:   1    -0.150477041039E+03    0.65882E-01   -0.17782E+01   385   0.814E+00    0.628E-01
RMM:   2    -0.150543162462E+03   -0.66121E-01   -0.43162E-01   426   0.159E+00    0.159E+00
RMM:   3    -0.150527999255E+03    0.15163E-01   -0.72934E-02   488   0.647E-01    0.128E+00
RMM:   4    -0.150514068228E+03    0.13931E-01   -0.12279E-02   399   0.270E-01    0.410E-01
RMM:   5    -0.150511265240E+03    0.28030E-02   -0.34721E-03   394   0.151E-01    0.294E-01
RMM:   6    -0.150510514052E+03    0.75119E-03   -0.99708E-04   379   0.765E-02    0.219E-01
RMM:   7    -0.150510492864E+03    0.21189E-04   -0.11317E-03   391   0.818E-02    0.307E-01
RMM:   8    -0.150509848813E+03    0.64405E-03   -0.11232E-03   385   0.803E-02    0.270E-01
RMM:   9    -0.150509152761E+03    0.69605E-03   -0.74661E-04   358   0.730E-02    0.144E-01
RMM:  10    -0.150508900498E+03    0.25226E-03   -0.32543E-04   243   0.534E-02    0.566E-02
RMM:  11    -0.150508838972E+03    0.61526E-04   -0.10982E-04   209   0.423E-02
  29 F= -.15050884E+03 E0= -.15030364E+03  d E =-.801054E-03
 curvature:   0.00 expect dE= 0.652-305 dE for cont linesearch  0.615-305
 ZBRENT: fatal error in bracketing
     please rerun with smaller EDIFF, or copy CONTCAR
     to POSCAR and continue
 running on    8 total cores
 distrk:  each k-point on    8 cores,    1 groups
 distr:  one band on    4 cores,    2 groups
 using from now: INCAR     
 vasp.5.4.1 24Jun15 (build Jan 06 2016 13:19:48) gamma-only                     
  
 POSCAR found type information on POSCAR  Pt
 POSCAR found :  1 types and      32 ions
 scaLAPACK will be used
 LDA part: xc-table for Ceperly-Alder, standard interpolation
 POSCAR found type information on POSCAR  Pt
 POSCAR found :  1 types and      32 ions
 POSCAR, INCAR and KPOINTS ok, starting setup
 WARNING: small aliasing (wrap around) errors must be expected
 FFT: planning ...
 WAVECAR not read
 entering main loop
       N       E                     dE             d eps       ncg     rms          rms(c)
RMM:   1     0.397554316616E+04    0.39755E+04   -0.61349E+04   192   0.697E+02
RMM:   2     0.208549552406E+04   -0.18900E+04   -0.20310E+04   192   0.176E+02
RMM:   3     0.114896620479E+04   -0.93653E+03   -0.11217E+04   192   0.134E+02
RMM:   4     0.558814520558E+03   -0.59015E+03   -0.62351E+03   192   0.128E+02
RMM:   5     0.245953428646E+03   -0.31286E+03   -0.28068E+03   192   0.866E+01
RMM:   6     0.639445114359E+02   -0.18201E+03   -0.14961E+03   192   0.778E+01
RMM:   7    -0.187479481158E+02   -0.82692E+02   -0.72661E+02   192   0.535E+01
RMM:   8    -0.785110022755E+02   -0.59763E+02   -0.44446E+02   192   0.567E+01
RMM:   9    -0.140231308577E+03   -0.61720E+02   -0.55815E+02   546   0.355E+01
RMM:  10    -0.152272116975E+03   -0.12041E+02   -0.12196E+02   584   0.102E+01
RMM:  11    -0.157155514796E+03   -0.48834E+01   -0.42134E+01   599   0.449E+00
RMM:  12    -0.158939623546E+03   -0.17841E+01   -0.11660E+01   619   0.199E+00    0.189E+01
RMM:  13    -0.153146066031E+03    0.57936E+01   -0.46958E+01   432   0.176E+01    0.117E+01
RMM:  14    -0.153505615879E+03   -0.35955E+00   -0.22277E+01   440   0.102E+01    0.118E+01
RMM:  15    -0.153978276691E+03   -0.47266E+00   -0.12407E+01   486   0.608E+00    0.126E+01
RMM:  16    -0.151199905395E+03    0.27784E+01   -0.46266E+00   429   0.448E+00    0.726E+00
RMM:  17    -0.150657759954E+03    0.54215E+00   -0.17660E+00   447   0.247E+00    0.393E+00
RMM:  18    -0.150779067858E+03   -0.12131E+00   -0.99283E-01   460   0.162E+00    0.485E+00
RMM:  19    -0.150680964432E+03    0.98103E-01   -0.31169E-01   447   0.939E-01    0.353E+00
RMM:  20    -0.150625357252E+03    0.55607E-01   -0.16500E-01   426   0.878E-01    0.244E+00
RMM:  21    -0.150634775997E+03   -0.94187E-02   -0.15143E-01   396   0.977E-01    0.234E+00
RMM:  22    -0.150633931699E+03    0.84430E-03   -0.98220E-02   410   0.750E-01    0.267E+00
RMM:  23    -0.150591767261E+03    0.42164E-01   -0.40598E-02   403   0.495E-01    0.169E+00
RMM:  24    -0.150564596357E+03    0.27171E-01   -0.39229E-02   388   0.514E-01    0.102E+00
RMM:  25    -0.150551772074E+03    0.12824E-01   -0.20878E-02   405   0.343E-01    0.624E-01
RMM:  26    -0.150546566963E+03    0.52051E-02   -0.90500E-03   405   0.226E-01    0.546E-01
RMM:  27    -0.150541916130E+03    0.46508E-02   -0.46617E-03   392   0.170E-01    0.338E-01
RMM:  28    -0.150539136763E+03    0.27794E-02   -0.27654E-03   394   0.132E-01    0.228E-01
RMM:  29    -0.150537226831E+03    0.19099E-02   -0.15741E-03   402   0.904E-02    0.176E-01
RMM:  30    -0.150536342904E+03    0.88393E-03   -0.76499E-04   314   0.646E-02    0.782E-02
RMM:  31    -0.150536378496E+03   -0.35592E-04   -0.64652E-04   311   0.620E-02
   1 F= -.15053638E+03 E0= -.15033354E+03  d E =-.150536E+03
 curvature:   0.00 expect dE= 0.000E+00 dE for cont linesearch  0.000E+00
 trial: gam= 0.00000 g(F)=  0.326E-03 g(S)=  0.000E+00 ort = 0.000E+00 (trialstep = 0.100E+01)
 search vector abs. value=  0.326E-03
 bond charge predicted
       N       E                     dE             d eps       ncg     rms          rms(c)
RMM:   1    -0.150537238436E+03   -0.89553E-03   -0.19773E-02   384   0.276E-01    0.965E-02
RMM:   2    -0.150540107515E+03   -0.28691E-02   -0.28618E-03   398   0.126E-01    0.463E-01
RMM:   3    -0.150538444077E+03    0.16634E-02   -0.10231E-03   374   0.927E-02    0.151E-01
RMM:   4    -0.150537935911E+03    0.50817E-03   -0.31113E-04   256   0.545E-02    0.885E-02
RMM:   5    -0.150537987831E+03   -0.51920E-04   -0.10047E-04   217   0.336E-02
   2 F= -.15053799E+03 E0= -.15033515E+03  d E =-.160933E-02
 ZBRENT: can't locate minimum, use default step
 trial-energy change:   -0.001609  1 .order   -0.000300   -0.000326   -0.000274
 step:   4.0000(harm=  6.2188)  dis= 0.00209  next Energy=  -150.537392 (dE=-0.101E-02)
 bond charge predicted
       N       E                     dE             d eps       ncg     rms          rms(c)
RMM:   1    -0.150538837258E+03   -0.90135E-03   -0.17244E-01   385   0.806E-01    0.741E-02
RMM:   2    -0.150540696752E+03   -0.18595E-02   -0.41674E-03   426   0.141E-01    0.324E-01
RMM:   3    -0.150540076587E+03    0.62017E-03   -0.66639E-04   346   0.710E-02    0.135E-01
RMM:   4    -0.150539880697E+03    0.19589E-03   -0.24647E-04   227   0.501E-02    0.603E-02
RMM:   5    -0.150540060312E+03   -0.17961E-03   -0.93496E-05   217   0.356E-02    0.400E-02
RMM:   6    -0.150540194651E+03   -0.13434E-03   -0.37745E-05   215   0.193E-02    0.325E-02
RMM:   7    -0.150540488917E+03   -0.29427E-03   -0.58958E-05   217   0.191E-02    0.364E-02
RMM:   8    -0.150541206531E+03   -0.71761E-03   -0.21333E-04   235   0.275E-02    0.744E-02
RMM:   9    -0.150541612585E+03   -0.40605E-03   -0.14661E-04   226   0.247E-02    0.242E-02
RMM:  10    -0.150541854014E+03   -0.24143E-03   -0.75366E-05   219   0.208E-02    0.130E-02
RMM:  11    -0.150542253330E+03   -0.39932E-03   -0.92051E-05   223   0.176E-02    0.153E-02
RMM:  12    -0.150542604211E+03   -0.35088E-03   -0.77535E-05   214   0.169E-02    0.173E-02
RMM:  13    -0.150542839253E+03   -0.23504E-03   -0.53955E-05   201   0.156E-02    0.200E-02
RMM:  14    -0.150543213987E+03   -0.37473E-03   -0.87240E-05   217   0.160E-02    0.170E-02
RMM:  15    -0.150543478321E+03   -0.26433E-03   -0.70294E-05   208   0.161E-02    0.907E-03
RMM:  16    -0.150543581998E+03   -0.10368E-03   -0.36623E-05   166   0.134E-02    0.737E-03
RMM:  17    -0.150543728711E+03   -0.14671E-03   -0.39399E-05   186   0.119E-02    0.645E-03
RMM:  18    -0.150543786352E+03   -0.57641E-04   -0.19687E-05   155   0.111E-02
   3 F= -.15054379E+03 E0= -.15034058E+03  d E =-.740786E-02
 curvature:  -2.55 expect dE=-0.362E-03 dE for cont linesearch -0.255E-03
 ZBRENT: increasing intervall
 opt :  10.0000  next Energy=  -150.544312 (dE=-0.793E-02)
 bond charge predicted
       N       E                     dE             d eps       ncg     rms          rms(c)
RMM:   1    -0.150543214376E+03    0.51434E-03   -0.68748E-01   385   0.161E+00    0.135E-01
RMM:   2    -0.150548369375E+03   -0.51550E-02   -0.15869E-02   448   0.267E-01    0.644E-01
RMM:   3    -0.150545372202E+03    0.29972E-02   -0.24015E-03   384   0.141E-01    0.225E-01
RMM:   4    -0.150544640656E+03    0.73155E-03   -0.93062E-04   359   0.819E-02    0.119E-01
RMM:   5    -0.150544503358E+03    0.13730E-03   -0.14971E-04   214   0.383E-02    0.801E-02
RMM:   6    -0.150544445297E+03    0.58062E-04   -0.68600E-05   204   0.334E-02
   4 F= -.15054445E+03 E0= -.15034061E+03  d E =-.806680E-02
 curvature:  -5.25 expect dE=-0.528E-03 dE for cont linesearch -0.720E-06
 trial: gam= 0.32883 g(F)=  0.100E-03 g(S)=  0.000E+00 ort =-0.668E-05 (trialstep = 0.280E+01)
 search vector abs. value=  0.131E-03
 bond charge predicted
       N       E                     dE             d eps       ncg     rms          rms(c)
RMM:   1    -0.150544613179E+03   -0.10982E-03   -0.59940E-02   384   0.482E-01    0.961E-02
RMM:   2    -0.150550152233E+03   -0.55391E-02   -0.31517E-03   424   0.124E-01    0.785E-01
RMM:   3    -0.150545437733E+03    0.47145E-02   -0.13990E-03   382   0.105E-01    0.105E-01
RMM:   4    -0.150544674249E+03    0.76348E-03   -0.52271E-04   294   0.675E-02    0.483E-02
RMM:   5    -0.150544653599E+03    0.20650E-04   -0.78949E-05   207   0.289E-02
   5 F= -.15054465E+03 E0= -.15034069E+03  d E =-.208303E-03
 trial-energy change:   -0.000208  1 .order   -0.000215   -0.000275   -0.000155
 step:   6.4062(harm=  6.4062)  dis= 0.00146  next Energy=  -150.544760 (dE=-0.315E-03)
 bond charge predicted
       N       E                     dE             d eps       ncg     rms          rms(c)
RMM:   1    -0.150544597058E+03    0.77191E-04   -0.99461E-02   384   0.620E-01    0.668E-02
RMM:   2    -0.150545459949E+03   -0.86289E-03   -0.25705E-03   400   0.125E-01    0.250E-01
RMM:   3    -0.150544976739E+03    0.48321E-03   -0.48763E-04   284   0.620E-02    0.114E-01
RMM:   4    -0.150544816027E+03    0.16071E-03   -0.18224E-04   215   0.479E-02    0.642E-02
RMM:   5    -0.150544775600E+03    0.40427E-04   -0.73323E-05   204   0.296E-02
   6 F= -.15054478E+03 E0= -.15034074E+03  d E =-.330303E-03
 curvature:  -4.28 expect dE=-0.126E-03 dE for cont linesearch -0.576E-05
 ZBRENT: interpolating
 opt :   5.7077  next Energy=  -150.544780 (dE=-0.335E-03)
 bond charge predicted
       N       E                     dE             d eps       ncg     rms          rms(c)
RMM:   1    -0.150544746201E+03    0.69826E-04   -0.34861E-03   383   0.118E-01    0.249E-02
RMM:   2    -0.150544820716E+03   -0.74515E-04   -0.13481E-04   201   0.362E-02
   7 F= -.15054482E+03 E0= -.15034106E+03  d E =-.375420E-03
 curvature:  -3.45 expect dE=-0.299E-03 dE for cont linesearch -0.145E-03
 ZBRENT: interpolating
 opt :   6.3003  next Energy=  -150.544776 (dE=-0.331E-03)
 bond charge predicted
       N       E                     dE             d eps       ncg     rms          rms(c)
RMM:   1    -0.150544761176E+03   -0.14975E-04   -0.24508E-03   383   0.104E-01    0.255E-02
RMM:   2    -0.150545049136E+03   -0.28796E-03   -0.19639E-04   209   0.559E-02    0.178E-01
RMM:   3    -0.150544813186E+03    0.23595E-03   -0.71613E-05   210   0.365E-02    0.407E-02
RMM:   4    -0.150544759852E+03    0.53334E-04   -0.23667E-05   205   0.164E-02
   8 F= -.15054476E+03 E0= -.15034083E+03  d E =-.314555E-03
 curvature:  -0.02 expect dE=-0.382E-06 dE for cont linesearch -0.997E-08
 ZBRENT: interpolating
 opt :   6.1115  next Energy=  -150.544761 (dE=-0.315E-03)
 bond charge predicted
       N       E                     dE             d eps       ncg     rms          rms(c)
RMM:   1    -0.150544754717E+03    0.58468E-04   -0.23027E-04   199   0.328E-02    0.104E-02
RMM:   2    -0.150544780023E+03   -0.25306E-04   -0.35519E-05   199   0.223E-02
   9 F= -.15054478E+03 E0= -.15034080E+03  d E =-.334726E-03
 curvature:  -1.55 expect dE=-0.521E-04 dE for cont linesearch -0.170E-04
 ZBRENT: interpolating
 opt :   6.2646  next Energy=  -150.544760 (dE=-0.315E-03)
 bond charge predicted
       N       E                     dE             d eps       ncg     rms          rms(c)
RMM:   1    -0.150544761810E+03   -0.70927E-05   -0.14338E-04   199   0.294E-02    0.140E-02
RMM:   2    -0.150544909032E+03   -0.14722E-03   -0.55128E-05   203   0.274E-02    0.131E-01
RMM:   3    -0.150544784559E+03    0.12447E-03   -0.34327E-05   203   0.255E-02    0.136E-02
RMM:   4    -0.150544762368E+03    0.22190E-04   -0.80961E-06   187   0.997E-03
  10 F= -.15054476E+03 E0= -.15034083E+03  d E =-.317072E-03
 curvature:  -0.01 expect dE=-0.325E-06 dE for cont linesearch -0.449E-09
 trial: gam= 0.17632 g(F)=  0.226E-04 g(S)=  0.000E+00 ort =-0.202E-05 (trialstep = 0.349E+01)
 search vector abs. value=  0.259E-04
 bond charge predicted
       N       E                     dE             d eps       ncg     rms          rms(c)
RMM:   1    -0.150544799240E+03   -0.14681E-04   -0.18615E-02   384   0.265E-01    0.303E-02
RMM:   2    -0.150545088035E+03   -0.28880E-03   -0.47070E-04   285   0.547E-02    0.161E-01
RMM:   3    -0.150544896178E+03    0.19186E-03   -0.13665E-04   210   0.421E-02    0.591E-02
RMM:   4    -0.150544835753E+03    0.60425E-04   -0.61388E-05   203   0.261E-02
  11 F= -.15054484E+03 E0= -.15034094E+03  d E =-.733849E-04
 trial-energy change:   -0.000073  1 .order   -0.000040   -0.000078   -0.000003
 step:   3.6379(harm=  3.6379)  dis= 0.00042  next Energy=  -150.544803 (dE=-0.404E-04)
 reached required accuracy - stopping structural energy minimisation
