       N       E                     dE             d eps       ncg     rms          rms(c)
RMM:   1     0.397554316616E+04    0.39755E+04   -0.61349E+04   192   0.697E+02
RMM:   2     0.208549552406E+04   -0.18900E+04   -0.20310E+04   192   0.176E+02
RMM:   3     0.114896620479E+04   -0.93653E+03   -0.11217E+04   192   0.134E+02
RMM:   4     0.558814520558E+03   -0.59015E+03   -0.62351E+03   192   0.128E+02
RMM:   5     0.245953428646E+03   -0.31286E+03   -0.28068E+03   192   0.866E+01
RMM:   6     0.639445114359E+02   -0.18201E+03   -0.14961E+03   192   0.778E+01
RMM:   7    -0.187479481158E+02   -0.82692E+02   -0.72661E+02   192   0.535E+01
RMM:   8    -0.785110022755E+02   -0.59763E+02   -0.44446E+02   192   0.567E+01
RMM:   9    -0.140231308577E+03   -0.61720E+02   -0.55815E+02   546   0.355E+01
RMM:  10    -0.152272116975E+03   -0.12041E+02   -0.12196E+02   584   0.102E+01
RMM:  11    -0.157155514796E+03   -0.48834E+01   -0.42134E+01   599   0.449E+00
RMM:  12    -0.158939623546E+03   -0.17841E+01   -0.11660E+01   619   0.199E+00    0.189E+01
RMM:  13    -0.153146066031E+03    0.57936E+01   -0.46958E+01   432   0.176E+01    0.117E+01
RMM:  14    -0.153505615879E+03   -0.35955E+00   -0.22277E+01   440   0.102E+01    0.118E+01
RMM:  15    -0.153978276691E+03   -0.47266E+00   -0.12407E+01   486   0.608E+00    0.126E+01
RMM:  16    -0.151199905395E+03    0.27784E+01   -0.46266E+00   429   0.448E+00    0.726E+00
RMM:  17    -0.150657759954E+03    0.54215E+00   -0.17660E+00   447   0.247E+00    0.393E+00
RMM:  18    -0.150779067858E+03   -0.12131E+00   -0.99283E-01   460   0.162E+00    0.485E+00
RMM:  19    -0.150680964432E+03    0.98103E-01   -0.31169E-01   447   0.939E-01    0.353E+00
RMM:  20    -0.150625357252E+03    0.55607E-01   -0.16500E-01   426   0.878E-01    0.244E+00
RMM:  21    -0.150634775997E+03   -0.94187E-02   -0.15143E-01   396   0.977E-01    0.234E+00
RMM:  22    -0.150633931699E+03    0.84430E-03   -0.98220E-02   410   0.750E-01    0.267E+00
RMM:  23    -0.150591767261E+03    0.42164E-01   -0.40598E-02   403   0.495E-01    0.169E+00
RMM:  24    -0.150564596357E+03    0.27171E-01   -0.39229E-02   388   0.514E-01    0.102E+00
RMM:  25    -0.150551772074E+03    0.12824E-01   -0.20878E-02   405   0.343E-01    0.624E-01
RMM:  26    -0.150546566963E+03    0.52051E-02   -0.90500E-03   405   0.226E-01    0.546E-01
RMM:  27    -0.150541916130E+03    0.46508E-02   -0.46617E-03   392   0.170E-01    0.338E-01
RMM:  28    -0.150539136763E+03    0.27794E-02   -0.27654E-03   394   0.132E-01    0.228E-01
RMM:  29    -0.150537226831E+03    0.19099E-02   -0.15741E-03   402   0.904E-02    0.176E-01
RMM:  30    -0.150536342904E+03    0.88393E-03   -0.76499E-04   314   0.646E-02    0.782E-02
RMM:  31    -0.150536378496E+03   -0.35592E-04   -0.64652E-04   311   0.620E-02
   1 F= -.15053638E+03 E0= -.15033354E+03  d E =-.150536E+03
       N       E                     dE             d eps       ncg     rms          rms(c)
RMM:   1    -0.150537238436E+03   -0.89553E-03   -0.19773E-02   384   0.276E-01    0.965E-02
RMM:   2    -0.150540107515E+03   -0.28691E-02   -0.28618E-03   398   0.126E-01    0.463E-01
RMM:   3    -0.150538444077E+03    0.16634E-02   -0.10231E-03   374   0.927E-02    0.151E-01
RMM:   4    -0.150537935911E+03    0.50817E-03   -0.31113E-04   256   0.545E-02    0.885E-02
RMM:   5    -0.150537987831E+03   -0.51920E-04   -0.10047E-04   217   0.336E-02
   2 F= -.15053799E+03 E0= -.15033515E+03  d E =-.160933E-02
       N       E                     dE             d eps       ncg     rms          rms(c)
RMM:   1    -0.150538837258E+03   -0.90135E-03   -0.17244E-01   385   0.806E-01    0.741E-02
RMM:   2    -0.150540696752E+03   -0.18595E-02   -0.41674E-03   426   0.141E-01    0.324E-01
RMM:   3    -0.150540076587E+03    0.62017E-03   -0.66639E-04   346   0.710E-02    0.135E-01
RMM:   4    -0.150539880697E+03    0.19589E-03   -0.24647E-04   227   0.501E-02    0.603E-02
RMM:   5    -0.150540060312E+03   -0.17961E-03   -0.93496E-05   217   0.356E-02    0.400E-02
RMM:   6    -0.150540194651E+03   -0.13434E-03   -0.37745E-05   215   0.193E-02    0.325E-02
RMM:   7    -0.150540488917E+03   -0.29427E-03   -0.58958E-05   217   0.191E-02    0.364E-02
RMM:   8    -0.150541206531E+03   -0.71761E-03   -0.21333E-04   235   0.275E-02    0.744E-02
RMM:   9    -0.150541612585E+03   -0.40605E-03   -0.14661E-04   226   0.247E-02    0.242E-02
RMM:  10    -0.150541854014E+03   -0.24143E-03   -0.75366E-05   219   0.208E-02    0.130E-02
RMM:  11    -0.150542253330E+03   -0.39932E-03   -0.92051E-05   223   0.176E-02    0.153E-02
RMM:  12    -0.150542604211E+03   -0.35088E-03   -0.77535E-05   214   0.169E-02    0.173E-02
RMM:  13    -0.150542839253E+03   -0.23504E-03   -0.53955E-05   201   0.156E-02    0.200E-02
RMM:  14    -0.150543213987E+03   -0.37473E-03   -0.87240E-05   217   0.160E-02    0.170E-02
RMM:  15    -0.150543478321E+03   -0.26433E-03   -0.70294E-05   208   0.161E-02    0.907E-03
RMM:  16    -0.150543581998E+03   -0.10368E-03   -0.36623E-05   166   0.134E-02    0.737E-03
RMM:  17    -0.150543728711E+03   -0.14671E-03   -0.39399E-05   186   0.119E-02    0.645E-03
RMM:  18    -0.150543786352E+03   -0.57641E-04   -0.19687E-05   155   0.111E-02
   3 F= -.15054379E+03 E0= -.15034058E+03  d E =-.740786E-02
       N       E                     dE             d eps       ncg     rms          rms(c)
RMM:   1    -0.150543214376E+03    0.51434E-03   -0.68748E-01   385   0.161E+00    0.135E-01
RMM:   2    -0.150548369375E+03   -0.51550E-02   -0.15869E-02   448   0.267E-01    0.644E-01
RMM:   3    -0.150545372202E+03    0.29972E-02   -0.24015E-03   384   0.141E-01    0.225E-01
RMM:   4    -0.150544640656E+03    0.73155E-03   -0.93062E-04   359   0.819E-02    0.119E-01
RMM:   5    -0.150544503358E+03    0.13730E-03   -0.14971E-04   214   0.383E-02    0.801E-02
RMM:   6    -0.150544445297E+03    0.58062E-04   -0.68600E-05   204   0.334E-02
   4 F= -.15054445E+03 E0= -.15034061E+03  d E =-.806680E-02
       N       E                     dE             d eps       ncg     rms          rms(c)
RMM:   1    -0.150544613179E+03   -0.10982E-03   -0.59940E-02   384   0.482E-01    0.961E-02
RMM:   2    -0.150550152233E+03   -0.55391E-02   -0.31517E-03   424   0.124E-01    0.785E-01
RMM:   3    -0.150545437733E+03    0.47145E-02   -0.13990E-03   382   0.105E-01    0.105E-01
RMM:   4    -0.150544674249E+03    0.76348E-03   -0.52271E-04   294   0.675E-02    0.483E-02
RMM:   5    -0.150544653599E+03    0.20650E-04   -0.78949E-05   207   0.289E-02
   5 F= -.15054465E+03 E0= -.15034069E+03  d E =-.208303E-03
       N       E                     dE             d eps       ncg     rms          rms(c)
RMM:   1    -0.150544597058E+03    0.77191E-04   -0.99461E-02   384   0.620E-01    0.668E-02
RMM:   2    -0.150545459949E+03   -0.86289E-03   -0.25705E-03   400   0.125E-01    0.250E-01
RMM:   3    -0.150544976739E+03    0.48321E-03   -0.48763E-04   284   0.620E-02    0.114E-01
RMM:   4    -0.150544816027E+03    0.16071E-03   -0.18224E-04   215   0.479E-02    0.642E-02
RMM:   5    -0.150544775600E+03    0.40427E-04   -0.73323E-05   204   0.296E-02
   6 F= -.15054478E+03 E0= -.15034074E+03  d E =-.330303E-03
       N       E                     dE             d eps       ncg     rms          rms(c)
RMM:   1    -0.150544746201E+03    0.69826E-04   -0.34861E-03   383   0.118E-01    0.249E-02
RMM:   2    -0.150544820716E+03   -0.74515E-04   -0.13481E-04   201   0.362E-02
   7 F= -.15054482E+03 E0= -.15034106E+03  d E =-.375420E-03
       N       E                     dE             d eps       ncg     rms          rms(c)
RMM:   1    -0.150544761176E+03   -0.14975E-04   -0.24508E-03   383   0.104E-01    0.255E-02
RMM:   2    -0.150545049136E+03   -0.28796E-03   -0.19639E-04   209   0.559E-02    0.178E-01
RMM:   3    -0.150544813186E+03    0.23595E-03   -0.71613E-05   210   0.365E-02    0.407E-02
RMM:   4    -0.150544759852E+03    0.53334E-04   -0.23667E-05   205   0.164E-02
   8 F= -.15054476E+03 E0= -.15034083E+03  d E =-.314555E-03
       N       E                     dE             d eps       ncg     rms          rms(c)
RMM:   1    -0.150544754717E+03    0.58468E-04   -0.23027E-04   199   0.328E-02    0.104E-02
RMM:   2    -0.150544780023E+03   -0.25306E-04   -0.35519E-05   199   0.223E-02
   9 F= -.15054478E+03 E0= -.15034080E+03  d E =-.334726E-03
       N       E                     dE             d eps       ncg     rms          rms(c)
RMM:   1    -0.150544761810E+03   -0.70927E-05   -0.14338E-04   199   0.294E-02    0.140E-02
RMM:   2    -0.150544909032E+03   -0.14722E-03   -0.55128E-05   203   0.274E-02    0.131E-01
RMM:   3    -0.150544784559E+03    0.12447E-03   -0.34327E-05   203   0.255E-02    0.136E-02
RMM:   4    -0.150544762368E+03    0.22190E-04   -0.80961E-06   187   0.997E-03
  10 F= -.15054476E+03 E0= -.15034083E+03  d E =-.317072E-03
       N       E                     dE             d eps       ncg     rms          rms(c)
RMM:   1    -0.150544799240E+03   -0.14681E-04   -0.18615E-02   384   0.265E-01    0.303E-02
RMM:   2    -0.150545088035E+03   -0.28880E-03   -0.47070E-04   285   0.547E-02    0.161E-01
RMM:   3    -0.150544896178E+03    0.19186E-03   -0.13665E-04   210   0.421E-02    0.591E-02
RMM:   4    -0.150544835753E+03    0.60425E-04   -0.61388E-05   203   0.261E-02
  11 F= -.15054484E+03 E0= -.15034094E+03  d E =-.733849E-04
