 vasp.5.4.1 24Jun15 (build Jan 06 2016 13:19:48) gamma-only                     
  
 executed on           IFC91_ompi date 2016.03.24  01:29:11
 running on    8 total cores
 distrk:  each k-point on    8 cores,    1 groups
 distr:  one band on NCORES_PER_BAND=   4 cores,    2 groups


--------------------------------------------------------------------------------------------------------


 INCAR:
 POTCAR:    PAW Pt                                
 POTCAR:    PAW Pt                                
   VRHFIN =Pt: s1d9                                                             
   LEXCH  = 91                                                                  
   EATOM  =   730.0441 eV,   53.6567 Ry                                         
                                                                                
   TITEL  = PAW Pt                                                              
   LULTRA =        F    use ultrasoft PP ?                                      
   IUNSCR =        1    unscreen: 0-lin 1-nonlin 2-no                           
   RPACOR =    2.330    partial core radius                                     
   POMASS =  195.080; ZVAL   =   10.000    mass and valenz                      
   RCORE  =    2.500    outmost cutoff radius                                   
   RWIGS  =    2.750; RWIGS  =    1.455    wigner-seitz radius (au A)           
   ENMAX  =  230.277; ENMIN  =  172.708 eV                                      
   RCLOC  =    1.896    cutoff for local pot                                    
   LCOR   =        T    correct aug charges                                     
   LPAW   =        T    paw PP                                                  
   EAUG   =  358.966                                                            
   DEXC   =    -.016                                                            
   RMAX   =    3.038    core radius for proj-oper                               
   RAUG   =    1.300    factor for augmentation sphere                          
   RDEP   =    2.590    core radius for depl-charge                             
   QCUT   =   -4.114; QGAM   =    8.228    optimization parameters              
                                                                                
   Description                                                                  
     l     E      TYP  RCUT    TYP  RCUT                                        
     2   .000     23  2.500                                                     
     2   .000     23  2.500                                                     
     0   .000     23  2.500                                                     
     0   .000     23  2.500                                                     
     1  -.200     23  2.500                                                     
     1  1.500     23  2.500                                                     
     3   .000      7   .000                                                     
  local pseudopotential read in
  partial core-charges read in
  atomic valenz-charges read in
  non local Contribution for L=           2  read in
    real space projection operators read in
  non local Contribution for L=           2  read in
    real space projection operators read in
  non local Contribution for L=           0  read in
    real space projection operators read in
  non local Contribution for L=           0  read in
    real space projection operators read in
  non local Contribution for L=           1  read in
    real space projection operators read in
  non local Contribution for L=           1  read in
    real space projection operators read in
    PAW grid and wavefunctions read in
 
   number of l-projection  operators is LMAX  =           6
   number of lm-projection operators is LMMAX =          18
 
 Optimization of the real space projectors (new method)

 maximal supplied QI-value         = 15.12
 optimisation between [QCUT,QGAM] = [  8.47, 16.93] = [ 20.07, 80.28] Ry 
 Optimized for a Real-space Cutoff    1.77 Angstroem

   l    n(q)    QCUT    max X(q) W(low)/X(q) W(high)/X(q)  e(spline) 
   2      8     8.466     3.641    0.49E-04    0.39E-05    0.40E-07
   2      8     8.466    46.630    0.33E-03    0.12E-03    0.54E-06
   0      9     8.466    13.886    0.23E-04    0.26E-05    0.52E-08
   0      9     8.466    57.975    0.13E-03    0.11E-03    0.74E-07
   1      8     8.466     7.456    0.74E-05    0.18E-04    0.29E-07
   1      8     8.466    10.270    0.67E-04    0.35E-04    0.82E-07
  PAW Pt                                :
 energy of atom  1       EATOM= -730.0441
 kinetic energy error for atom=    0.0517 (will be added to EATOM!!)
 
 
 POSCAR: Pt                                      
  positions in direct lattice
  velocities in cartesian coordinates
 exchange correlation table for  LEXCH =        7
   RHO(1)=    0.500       N(1)  =     2000
   RHO(2)=  100.500       N(2)  =     4000

 VTST: version 3.1, (03/28/14)

 CHAIN: initializing optimizer
 
 OPT: Using VASP Conjugate-Gradient optimizer
 CHAIN: Read ICHAIN            0
 
 POSCAR: Pt                                      
  positions in direct lattice
  velocities in cartesian coordinates
 


--------------------------------------------------------------------------------------------------------


 ion  position               nearest neighbor table
   1  0.326  0.326  0.326-   2 2.60   4 2.60   3 2.60
   2  0.441  0.441  0.310-   1 2.60   5 2.62   9 2.62  13 2.66   8 2.82  11 2.82   3 2.97   4 2.97

   3  0.441  0.310  0.441-   1 2.60  17 2.62   5 2.62  21 2.66  18 2.82   8 2.82   2 2.97   4 2.97

   4  0.310  0.441  0.441-   1 2.60  17 2.62   9 2.62  25 2.66  18 2.82  11 2.82   3 2.97   2 2.97

   5  0.554  0.323  0.323-   3 2.62   2 2.62   8 2.67   7 2.78   6 2.78
   6  0.677  0.446  0.323-  13 2.62  15 2.62   8 2.67   5 2.78   7 2.78
   7  0.677  0.323  0.446-  21 2.62  22 2.62   8 2.67   5 2.78   6 2.78
   8  0.559  0.440  0.440-   7 2.67   6 2.67   5 2.67  29 2.68  11 2.68  18 2.68   3 2.82  22 2.82
                             2 2.82  21 2.82  15 2.82  13 2.82
   9  0.323  0.554  0.323-   4 2.62   2 2.62  11 2.67  10 2.78  12 2.78
  10  0.446  0.677  0.323-  13 2.62  16 2.62  11 2.67   9 2.78  12 2.78
  11  0.440  0.559  0.440-  10 2.67   9 2.67  12 2.67  29 2.68   8 2.68  18 2.68   4 2.82   2 2.82
                            16 2.82  26 2.82  25 2.82  13 2.82
  12  0.323  0.677  0.446-  25 2.62  26 2.62  11 2.67   9 2.78  10 2.78
  13  0.558  0.558  0.309-  14 2.60   6 2.62  10 2.62   2 2.66   8 2.82  11 2.82  15 2.97  16 2.97

  14  0.673  0.673  0.326-  16 2.60  15 2.60  13 2.60
  15  0.690  0.558  0.441-  14 2.60   6 2.62  30 2.62  22 2.66   8 2.82  29 2.82  16 2.97  13 2.97

  16  0.558  0.690  0.441-  14 2.60  30 2.62  10 2.62  26 2.66  11 2.82  29 2.82  15 2.97  13 2.97

  17  0.323  0.323  0.554-   3 2.62   4 2.62  18 2.67  19 2.78  20 2.78
  18  0.440  0.440  0.559-  19 2.67  17 2.67  20 2.67  29 2.68  11 2.68   8 2.68   3 2.82  24 2.82
                             4 2.82  21 2.82  27 2.82  25 2.82
  19  0.446  0.323  0.677-  21 2.62  24 2.62  18 2.67  17 2.78  20 2.78
  20  0.323  0.446  0.677-  27 2.62  25 2.62  18 2.67  17 2.78  19 2.78
  21  0.558  0.310  0.558-  23 2.60  19 2.62   7 2.62   3 2.66  18 2.82   8 2.82  22 2.97  24 2.97

  22  0.690  0.441  0.558-  23 2.60   7 2.62  31 2.62  15 2.66   8 2.82  29 2.82  21 2.97  24 2.97

  23  0.673  0.326  0.673-  22 2.60  24 2.60  21 2.60
  24  0.558  0.441  0.690-  23 2.60  19 2.62  31 2.62  27 2.66  18 2.82  29 2.82  21 2.97  22 2.97

  25  0.310  0.558  0.558-  28 2.60  20 2.62  12 2.62   4 2.66  18 2.82  11 2.82  27 2.97  26 2.97

  26  0.441  0.690  0.558-  28 2.60  32 2.62  12 2.62  16 2.66  11 2.82  29 2.82  27 2.97  25 2.97

  27  0.441  0.558  0.690-  28 2.60  20 2.62  32 2.62  24 2.66  18 2.82  29 2.82  26 2.97  25 2.97

  28  0.326  0.673  0.673-  26 2.60  27 2.60  25 2.60
  29  0.559  0.559  0.559-  31 2.67  30 2.67  32 2.67  11 2.68   8 2.68  18 2.68  22 2.82  24 2.82
                            15 2.82  27 2.82  16 2.82  26 2.82
  30  0.677  0.677  0.554-  15 2.62  16 2.62  29 2.67  31 2.78  32 2.78
  31  0.677  0.554  0.677-  24 2.62  22 2.62  29 2.67  30 2.78  32 2.78
  32  0.554  0.677  0.677-  27 2.62  26 2.62  29 2.67  31 2.78  30 2.78
 

IMPORTANT INFORMATION: All symmetrisations will be switched off!
NOSYMM: (Re-)initialisation of all symmetry stuff for point group C_1.

 
 
 KPOINTS: Automatic Mesh                          

Automatic generation of k-mesh.
Space group operators:
 irot       det(A)        alpha          n_x          n_y          n_z        tau_x        tau_y        tau_z
    1     1.000000     0.000000     1.000000     0.000000     0.000000     0.000000     0.000000     0.000000
 
 Subroutine IBZKPT returns following result:
 ===========================================
 
 Found      1 irreducible k-points:
 
 Following reciprocal coordinates:
            Coordinates               Weight
  0.000000  0.000000  0.000000      1.000000
 
 Following cartesian coordinates:
            Coordinates               Weight
  0.000000  0.000000  0.000000      1.000000
 


--------------------------------------------------------------------------------------------------------




 Dimension of arrays:
   k-points           NKPTS =      1   k-points in BZ     NKDIM =      1   number of bands    NBANDS=    192
   number of dos      NEDOS =    301   number of ions     NIONS =     32
   non local maximal  LDIM  =      6   non local SUM 2l+1 LMDIM =     18
   total plane-waves  NPLWV = 343000
   max r-space proj   IRMAX =   1993   max aug-charges    IRDMAX=   5271
   dimension x,y,z NGX =    70 NGY =   70 NGZ =   70
   dimension x,y,z NGXF=   140 NGYF=  140 NGZF=  140
   support grid    NGXF=   140 NGYF=  140 NGZF=  140
   ions per type =              32
 NGX,Y,Z   is equivalent  to a cutoff of   7.27,  7.27,  7.27 a.u.
 NGXF,Y,Z  is equivalent  to a cutoff of  14.55, 14.55, 14.55 a.u.


 I would recommend the setting:
   dimension x,y,z NGX =    65 NGY =   65 NGZ =   65
 SYSTEM =  Pt cube particle                        
 POSCAR =  Pt                                      

 Startparameter for this run:
   NWRITE =      2    write-flag & timer
   PREC   = normal    normal or accurate (medium, high low for compatibility)
   ISTART =      0    job   : 0-new  1-cont  2-samecut
   ICHARG =      2    charge: 1-file 2-atom 10-const
   ISPIN  =      1    spin polarized calculation?
   LNONCOLLINEAR =      F non collinear calculations
   LSORBIT =      F    spin-orbit coupling
   INIWAV =      1    electr: 0-lowe 1-rand  2-diag
   LASPH  =      F    aspherical Exc in radial PAW
   METAGGA=      F    non-selfconsistent MetaGGA calc.

 Electronic Relaxation 1
   ENCUT  =  274.0 eV  20.14 Ry    4.49 a.u.  21.59 21.59 21.59*2*pi/ulx,y,z
   ENINI  =  274.0     initial cutoff
   ENAUG  =  359.0 eV  augmentation charge cutoff
   NELM   =     60;   NELMIN=  2; NELMDL=-12     # of ELM steps 
   EDIFF  = 0.1E-03   stopping-criterion for ELM
   LREAL  =      T    real-space projection
   NLSPLINE    = F    spline interpolate recip. space projectors
   LCOMPAT=      F    compatible to vasp.4.4
   GGA_COMPAT  = T    GGA compatible to vasp.4.4-vasp.4.6
   LMAXPAW     = -100 max onsite density
   LMAXMIX     =    2 max onsite mixed and CHGCAR
   VOSKOWN=      0    Vosko Wilk Nusair interpolation
   ROPT   =   -0.00050
 Ionic relaxation
   EDIFFG = -.5E-02   stopping-criterion for IOM
   NSW    =    200    number of steps for IOM
   NBLOCK =      1;   KBLOCK =    200    inner block; outer block 
   IBRION =      2    ionic relax: 0-MD 1-quasi-New 2-CG
   NFREE  =      1    steps in history (QN), initial steepest desc. (CG)
   ISIF   =      0    stress and relaxation
   IWAVPR =     11    prediction:  0-non 1-charg 2-wave 3-comb
   ISYM   =      0    0-nonsym 1-usesym 2-fastsym
   LCORR  =      T    Harris-Foulkes like correction to forces

   POTIM  = 0.1000    time-step for ionic-motion
   TEIN   =    0.0    initial temperature
   TEBEG  =    0.0;   TEEND  =   0.0 temperature during run
   SMASS  =  -3.00    Nose mass-parameter (am)
   estimated Nose-frequenzy (Omega)   =  0.10E-29 period in steps =****** mass=  -0.585E-26a.u.
   SCALEE = 1.0000    scale energy and forces
   NPACO  =    256;   APACO  = 16.0  distance and # of slots for P.C.
   PSTRESS=    0.0 pullay stress

  Mass of Ions in am
   POMASS = 195.08
  Ionic Valenz
   ZVAL   =  10.00
  Atomic Wigner-Seitz radii
   RWIGS  =  -1.00
  virtual crystal weights 
   VCA    =   1.00
   NELECT =     320.0000    total number of electrons
   NUPDOWN=      -1.0000    fix difference up-down

 DOS related values:
   EMIN   =  10.00;   EMAX   =-10.00  energy-range for DOS
   EFERMI =   0.00
   ISMEAR =     1;   SIGMA  =   0.20  broadening in eV -4-tet -1-fermi 0-gaus

 Electronic relaxation 2 (details)
   IALGO  =     48    algorithm
   LDIAG  =      T    sub-space diagonalisation (order eigenvalues)
   LSUBROT=      F    optimize rotation matrix (better conditioning)
   TURBO    =      0    0=normal 1=particle mesh
   IRESTART =      0    0=no restart 2=restart with 2 vectors
   NREBOOT  =      0    no. of reboots
   NMIN     =      0    reboot dimension
   EREF     =   0.00    reference energy to select bands
   IMIX   =      4    mixing-type and parameters
     AMIX     =   0.40;   BMIX     =  1.00
     AMIX_MAG =   1.60;   BMIX_MAG =  1.00
     AMIN     =   0.10
     WC   =   100.;   INIMIX=   1;  MIXPRE=   1;  MAXMIX= -45

 Intra band minimization:
   WEIMIN = 0.0010     energy-eigenvalue tresh-hold
   EBREAK =  0.13E-06  absolut break condition
   DEPER  =   0.30     relativ break condition  

   TIME   =   0.40     timestep for ELM

  volume/ion in A,a.u.               =     128.00       863.79
  Fermi-wavevector in a.u.,A,eV,Ry     =   0.699850  1.322524  6.663994  0.489790
  Thomas-Fermi vector in A             =   1.783842
 
 Write flags
   LWAVE  =      F    write WAVECAR
   LCHARG =      F    write CHGCAR
   LVTOT  =      F    write LOCPOT, total local potential
   LVHAR  =      F    write LOCPOT, Hartree potential only
   LELF   =      F    write electronic localiz. function (ELF)
   LORBIT =      0    0 simple, 1 ext, 2 COOP (PROOUT)


 Dipole corrections
   LMONO  =      F    monopole corrections only (constant potential shift)
   LDIPOL =      F    correct potential (dipole corrections)
   IDIPOL =      0    1-x, 2-y, 3-z, 4-all directions 
   EPSILON=  1.0000000 bulk dielectric constant

 Exchange correlation treatment:
   GGA     =    --    GGA type
   LEXCH   =     7    internal setting for exchange type
   VOSKOWN=      0    Vosko Wilk Nusair interpolation
   LHFCALC =     F    Hartree Fock is set to
   LHFONE  =     F    Hartree Fock one center treatment
   AEXX    =    0.0000 exact exchange contribution

 Linear response parameters
   LEPSILON=     F    determine dielectric tensor
   LRPA    =     F    only Hartree local field effects (RPA)
   LNABLA  =     F    use nabla operator in PAW spheres
   LVEL    =     F    velocity operator in full k-point grid
   LINTERFAST=   F  fast interpolation
   KINTER  =     0    interpolate to denser k-point grid
   CSHIFT  =0.1000    complex shift for real part using Kramers Kronig
   OMEGAMAX=  -1.0    maximum frequency
   DEG_THRESHOLD= 0.2000000E-02 threshold for treating states as degnerate
   RTIME   =    0.100 relaxation time in fs

 Orbital magnetization related:
   ORBITALMAG=     F  switch on orbital magnetization
   LCHIMAG   =     F  perturbation theory with respect to B field
   DQ        =  0.001000  dq finite difference perturbation B field



--------------------------------------------------------------------------------------------------------


 conjugate gradient relaxation of ions
   using selective dynamics as specified on POSCAR
 charge density and potential will be updated during run
 non-spin polarized calculation
 RMM-DIIS sequential band-by-band
 perform sub-space diagonalisation
    before iterative eigenvector-optimisation
 modified Broyden-mixing scheme, WC =      100.0
 initial mixing is a Kerker type mixing with AMIX =  0.4000 and BMIX =      1.0000
 Hartree-type preconditioning will be used
 using additional bands           32
 real space projection scheme for non local part
 use partial core corrections
 calculate Harris-corrections to forces 
   (improved forces if not selfconsistent)
 use gradient corrections 
 use of overlap-Matrix (Vanderbilt PP)
 Methfessel and Paxton  Order N= 1 SIGMA  =   0.20


--------------------------------------------------------------------------------------------------------


  energy-cutoff  :      274.00
  volume of cell :     4096.00
      direct lattice vectors                 reciprocal lattice vectors
    16.000000000  0.000000000  0.000000000     0.062500000  0.000000000  0.000000000
     0.000000000 16.000000000  0.000000000     0.000000000  0.062500000  0.000000000
     0.000000000  0.000000000 16.000000000     0.000000000  0.000000000  0.062500000

  length of vectors
    16.000000000 16.000000000 16.000000000     0.062500000  0.062500000  0.062500000


 
 k-points in units of 2pi/SCALE and weight: Automatic Mesh                          
   0.00000000  0.00000000  0.00000000       1.000
 
 k-points in reciprocal lattice and weights: Automatic Mesh                          
   0.00000000  0.00000000  0.00000000       1.000
 
 position of ions in fractional coordinates (direct lattice) 
   0.32634944  0.32632665  0.32635201
   0.44081179  0.44079117  0.30960247
   0.44082805  0.30964909  0.44082912
   0.30960700  0.44079803  0.44081808
   0.55363960  0.32260998  0.32265923
   0.67655202  0.44551338  0.32263343
   0.67651091  0.32262727  0.44557009
   0.55878959  0.44041000  0.44040974
   0.32259862  0.55363649  0.32260014
   0.44552024  0.67656880  0.32258645
   0.44042481  0.55876923  0.44041772
   0.32257868  0.67657725  0.44552240
   0.55840381  0.55838453  0.30949282
   0.67289981  0.67288608  0.32632560
   0.68962581  0.55836369  0.44080930
   0.55839086  0.68965074  0.44080139
   0.32264920  0.32260229  0.55361577
   0.44041039  0.44040104  0.55878632
   0.44559456  0.32261672  0.67652232
   0.32261221  0.44553949  0.67657364
   0.55840450  0.30961658  0.55840312
   0.68955573  0.44077205  0.55839774
   0.67284339  0.32635833  0.67284510
   0.55839277  0.44077804  0.68954973
   0.30951350  0.55838813  0.55840707
   0.44078910  0.68963584  0.55840300
   0.44080393  0.55836856  0.68959840
   0.32632902  0.67287937  0.67289779
   0.55877076  0.55875520  0.55875865
   0.67658205  0.67655452  0.55366811
   0.67655005  0.55361268  0.67655284
   0.55366779  0.67655879  0.67659037
 
 position of ions in cartesian coordinates  (Angst):
   5.22159098  5.22122638  5.22163221
   7.05298868  7.05265879  4.95363945
   7.05324881  4.95438547  7.05326589
   4.95371202  7.05276845  7.05308935
   8.85823356  5.16175975  5.16254766
  10.82483233  7.12821403  5.16213481
  10.82417450  5.16203633  7.12912151
   8.94063347  7.04656003  7.04655586
   5.16157788  8.85818380  5.16160224
   7.12832384 10.82510073  5.16138321
   7.04679704  8.94030772  7.04668359
   5.16125891 10.82523604  7.12835847
   8.93446089  8.93415251  4.95188517
  10.76639691 10.76617723  5.22120953
  11.03401302  8.93381897  7.05294876
   8.93425378 11.03441189  7.05282228
   5.16238718  5.16163668  8.85785236
   7.04656624  7.04641667  8.94058107
   7.12951297  5.16186745 10.82435718
   5.16179543  7.12863191 10.82517829
   8.93447208  4.95386532  8.93444990
  11.03289162  7.05235278  8.93436390
  10.76549423  5.22173330 10.76552167
   8.93428437  7.05244856 11.03279568
   4.95221597  8.93421003  8.93451316
   7.05262565 11.03417339  8.93444804
   7.05286294  8.93389701 11.03357443
   5.22126434 10.76606985 10.76636463
   8.94033209  8.94008325  8.94013847
  10.82531283 10.82487227  8.85868979
  10.82480075  8.85780284 10.82484548
   8.85868468 10.82494056 10.82544596
 


--------------------------------------------------------------------------------------------------------


 use parallel FFT for wavefunctions z direction half grid
 k-point  1 :   0.0000 0.0000 0.0000  plane waves:   21106

 maximum and minimum number of plane-waves per node :      5285     5272

 maximum number of plane-waves:     21106
 maximum index in each direction: 
   IXMAX=   21   IYMAX=   21   IZMAX=   21
   IXMIN=  -21   IYMIN=  -21   IZMIN=    0

 WARNING: aliasing errors must be expected set NGX to  86 to avoid them
 WARNING: aliasing errors must be expected set NGY to  86 to avoid them
 WARNING: aliasing errors must be expected set NGZ to  86 to avoid them
 aliasing errors are usually negligible using standard VASP settings
 and one can safely disregard these warnings

 real space projection operators:
  total allocation   :       8496.14 KBytes
  max/ min on nodes  :       2176.88       2059.17


 parallel 3D FFT for wavefunctions:
    minimum data exchange during FFTs selected (reduces bandwidth)
 parallel 3D FFT for charge:
    minimum data exchange during FFTs selected (reduces bandwidth)


 total amount of memory used by VASP on root node    75355. kBytes
========================================================================

   base      :      30000. kBytes
   nonlr-proj:       2621. kBytes
   fftplans  :      13800. kBytes
   grid      :      20643. kBytes
   one-center:         62. kBytes
   wavefun   :       8229. kBytes
 
     INWAV:  cpu time    0.0000: real time    0.0000
 Broyden mixing: mesh for mixing (old mesh)
   NGX = 43   NGY = 43   NGZ = 43
  (NGX  =140   NGY  =140   NGZ  =140)
  gives a total of  79507 points

 initial charge density was supplied:
 charge density of overlapping atoms calculated
 number of electron     320.0000000 magnetization 
 keeping initial charge density in first step


--------------------------------------------------------------------------------------------------------


 Maximum index for non-local projection operator          495
 Maximum index for augmentation-charges          647 (set IRDMAX)


--------------------------------------------------------------------------------------------------------


 First call to EWALD:  gamma=   0.111
 Maximum number of real-space cells 3x 3x 3
 Maximum number of reciprocal cells 3x 3x 3

 FEWALD executed in parallel
    FEWALD:  cpu time    0.0040: real time    0.0034


----------------------------------------- Iteration    1(   1)  ---------------------------------------


    POTLOK:  cpu time    1.1688: real time    1.1701
    SETDIJ:  cpu time    0.0160: real time    0.0161
    EDDIAG:  cpu time    1.3318: real time    1.3327
  RMM-DIIS:  cpu time    3.2625: real time    3.2654
    ORTHCH:  cpu time    0.1440: real time    0.1439
       DOS:  cpu time    0.0010: real time    0.0008
    --------------------------------------------
      LOOP:  cpu time    5.9271: real time    5.9334

 eigenvalue-minimisations  :   192
 total energy-change (2. order) : 0.3975543E+04  (-0.6134913E+04)
 number of electron     320.0000000 magnetization 
 augmentation part      320.0000000 magnetization 

 Free energy of the ion-electron system (eV)
  ---------------------------------------------------
  alpha Z        PSCENC =       362.61262500
  Ewald energy   TEWEN  =     39681.47931741
  -Hartree energ DENC   =    -62551.91690400
  -exchange      EXHF   =         0.00000000
  -V(xc)+E(xc)   XCENC  =        75.53463959
  PAW double counting   =     18350.57977217   -17441.60386103
  entropy T*S    EENTRO =         0.07312342
  eigenvalues    EBANDS =      2139.02868436
  atomic energy  EATOM  =     23359.75576925
  Solvation  Ediel_sol  =         0.00000000
  ---------------------------------------------------
  free energy    TOTEN  =      3975.54316616 eV

  energy without entropy =     3975.47004274  energy(sigma->0) =     3975.51879169


--------------------------------------------------------------------------------------------------------




----------------------------------------- Iteration    1(   2)  ---------------------------------------


    EDDIAG:  cpu time    1.3198: real time    1.3196
  RMM-DIIS:  cpu time    3.2855: real time    3.2873
    ORTHCH:  cpu time    0.1420: real time    0.1425
       DOS:  cpu time    0.0010: real time    0.0009
    --------------------------------------------
      LOOP:  cpu time    4.7503: real time    4.7542

 eigenvalue-minimisations  :   192
 total energy-change (2. order) :-0.1890048E+04  (-0.2030954E+04)
 number of electron     320.0000000 magnetization 
 augmentation part      320.0000000 magnetization 

 Free energy of the ion-electron system (eV)
  ---------------------------------------------------
  alpha Z        PSCENC =       362.61262500
  Ewald energy   TEWEN  =     39681.47931741
  -Hartree energ DENC   =    -62551.91690400
  -exchange      EXHF   =         0.00000000
  -V(xc)+E(xc)   XCENC  =        75.53463959
  PAW double counting   =     18350.57977217   -17441.60386103
  entropy T*S    EENTRO =        -0.00536841
  eigenvalues    EBANDS =       249.05953409
  atomic energy  EATOM  =     23359.75576925
  Solvation  Ediel_sol  =         0.00000000
  ---------------------------------------------------
  free energy    TOTEN  =      2085.49552406 eV

  energy without entropy =     2085.50089247  energy(sigma->0) =     2085.49731353


--------------------------------------------------------------------------------------------------------




----------------------------------------- Iteration    1(   3)  ---------------------------------------


    EDDIAG:  cpu time    1.3258: real time    1.3259
  RMM-DIIS:  cpu time    3.2225: real time    3.2250
    ORTHCH:  cpu time    0.1440: real time    0.1445
       DOS:  cpu time    0.0010: real time    0.0010
    --------------------------------------------
      LOOP:  cpu time    4.6963: real time    4.7003

 eigenvalue-minimisations  :   192
 total energy-change (2. order) :-0.9365293E+03  (-0.1121670E+04)
 number of electron     320.0000000 magnetization 
 augmentation part      320.0000000 magnetization 

 Free energy of the ion-electron system (eV)
  ---------------------------------------------------
  alpha Z        PSCENC =       362.61262500
  Ewald energy   TEWEN  =     39681.47931741
  -Hartree energ DENC   =    -62551.91690400
  -exchange      EXHF   =         0.00000000
  -V(xc)+E(xc)   XCENC  =        75.53463959
  PAW double counting   =     18350.57977217   -17441.60386103
  entropy T*S    EENTRO =         0.03423956
  eigenvalues    EBANDS =      -687.50939315
  atomic energy  EATOM  =     23359.75576925
  Solvation  Ediel_sol  =         0.00000000
  ---------------------------------------------------
  free energy    TOTEN  =      1148.96620479 eV

  energy without entropy =     1148.93196523  energy(sigma->0) =     1148.95479161


--------------------------------------------------------------------------------------------------------




----------------------------------------- Iteration    1(   4)  ---------------------------------------


    EDDIAG:  cpu time    1.2828: real time    1.2839
  RMM-DIIS:  cpu time    3.2455: real time    3.2478
    ORTHCH:  cpu time    0.1420: real time    0.1427
       DOS:  cpu time    0.0010: real time    0.0010
    --------------------------------------------
      LOOP:  cpu time    4.6743: real time    4.6779

 eigenvalue-minimisations  :   192
 total energy-change (2. order) :-0.5901517E+03  (-0.6235094E+03)
 number of electron     320.0000000 magnetization 
 augmentation part      320.0000000 magnetization 

 Free energy of the ion-electron system (eV)
  ---------------------------------------------------
  alpha Z        PSCENC =       362.61262500
  Ewald energy   TEWEN  =     39681.47931741
  -Hartree energ DENC   =    -62551.91690400
  -exchange      EXHF   =         0.00000000
  -V(xc)+E(xc)   XCENC  =        75.53463959
  PAW double counting   =     18350.57977217   -17441.60386103
  entropy T*S    EENTRO =         0.08688199
  eigenvalues    EBANDS =     -1277.71371981
  atomic energy  EATOM  =     23359.75576925
  Solvation  Ediel_sol  =         0.00000000
  ---------------------------------------------------
  free energy    TOTEN  =       558.81452056 eV

  energy without entropy =      558.72763857  energy(sigma->0) =      558.78555990


--------------------------------------------------------------------------------------------------------




----------------------------------------- Iteration    1(   5)  ---------------------------------------


    EDDIAG:  cpu time    1.3128: real time    1.3137
  RMM-DIIS:  cpu time    3.2685: real time    3.2707
    ORTHCH:  cpu time    0.1420: real time    0.1417
       DOS:  cpu time    0.0010: real time    0.0011
    --------------------------------------------
      LOOP:  cpu time    4.7273: real time    4.7299

 eigenvalue-minimisations  :   192
 total energy-change (2. order) :-0.3128611E+03  (-0.2806768E+03)
 number of electron     320.0000000 magnetization 
 augmentation part      320.0000000 magnetization 

 Free energy of the ion-electron system (eV)
  ---------------------------------------------------
  alpha Z        PSCENC =       362.61262500
  Ewald energy   TEWEN  =     39681.47931741
  -Hartree energ DENC   =    -62551.91690400
  -exchange      EXHF   =         0.00000000
  -V(xc)+E(xc)   XCENC  =        75.53463959
  PAW double counting   =     18350.57977217   -17441.60386103
  entropy T*S    EENTRO =         0.05024711
  eigenvalues    EBANDS =     -1590.53817685
  atomic energy  EATOM  =     23359.75576925
  Solvation  Ediel_sol  =         0.00000000
  ---------------------------------------------------
  free energy    TOTEN  =       245.95342865 eV

  energy without entropy =      245.90318153  energy(sigma->0) =      245.93667961


--------------------------------------------------------------------------------------------------------




----------------------------------------- Iteration    1(   6)  ---------------------------------------


    EDDIAG:  cpu time    1.2808: real time    1.2811
  RMM-DIIS:  cpu time    3.2385: real time    3.2397
    ORTHCH:  cpu time    0.1420: real time    0.1432
       DOS:  cpu time    0.0010: real time    0.0010
    --------------------------------------------
      LOOP:  cpu time    4.6643: real time    4.6689

 eigenvalue-minimisations  :   192
 total energy-change (2. order) :-0.1820089E+03  (-0.1496115E+03)
 number of electron     320.0000000 magnetization 
 augmentation part      320.0000000 magnetization 

 Free energy of the ion-electron system (eV)
  ---------------------------------------------------
  alpha Z        PSCENC =       362.61262500
  Ewald energy   TEWEN  =     39681.47931741
  -Hartree energ DENC   =    -62551.91690400
  -exchange      EXHF   =         0.00000000
  -V(xc)+E(xc)   XCENC  =        75.53463959
  PAW double counting   =     18350.57977217   -17441.60386103
  entropy T*S    EENTRO =        -0.06104319
  eigenvalues    EBANDS =     -1772.43580376
  atomic energy  EATOM  =     23359.75576925
  Solvation  Ediel_sol  =         0.00000000
  ---------------------------------------------------
  free energy    TOTEN  =        63.94451144 eV

  energy without entropy =       64.00555462  energy(sigma->0) =       63.96485916


--------------------------------------------------------------------------------------------------------




----------------------------------------- Iteration    1(   7)  ---------------------------------------


    EDDIAG:  cpu time    1.3328: real time    1.3330
  RMM-DIIS:  cpu time    3.2715: real time    3.2736
    ORTHCH:  cpu time    0.1420: real time    0.1420
       DOS:  cpu time    0.0010: real time    0.0010
    --------------------------------------------
      LOOP:  cpu time    4.7493: real time    4.7535

 eigenvalue-minimisations  :   192
 total energy-change (2. order) :-0.8269246E+02  (-0.7266120E+02)
 number of electron     320.0000000 magnetization 
 augmentation part      320.0000000 magnetization 

 Free energy of the ion-electron system (eV)
  ---------------------------------------------------
  alpha Z        PSCENC =       362.61262500
  Ewald energy   TEWEN  =     39681.47931741
  -Hartree energ DENC   =    -62551.91690400
  -exchange      EXHF   =         0.00000000
  -V(xc)+E(xc)   XCENC  =        75.53463959
  PAW double counting   =     18350.57977217   -17441.60386103
  entropy T*S    EENTRO =         0.09277844
  eigenvalues    EBANDS =     -1855.28208494
  atomic energy  EATOM  =     23359.75576925
  Solvation  Ediel_sol  =         0.00000000
  ---------------------------------------------------
  free energy    TOTEN  =       -18.74794812 eV

  energy without entropy =      -18.84072656  energy(sigma->0) =      -18.77887426


--------------------------------------------------------------------------------------------------------




----------------------------------------- Iteration    1(   8)  ---------------------------------------


    EDDIAG:  cpu time    1.3308: real time    1.3328
  RMM-DIIS:  cpu time    3.2985: real time    3.3011
    ORTHCH:  cpu time    0.1420: real time    0.1419
       DOS:  cpu time    0.0010: real time    0.0010
    --------------------------------------------
      LOOP:  cpu time    4.7763: real time    4.7812

 eigenvalue-minimisations  :   192
 total energy-change (2. order) :-0.5976305E+02  (-0.4444589E+02)
 number of electron     320.0000000 magnetization 
 augmentation part      320.0000000 magnetization 

 Free energy of the ion-electron system (eV)
  ---------------------------------------------------
  alpha Z        PSCENC =       362.61262500
  Ewald energy   TEWEN  =     39681.47931741
  -Hartree energ DENC   =    -62551.91690400
  -exchange      EXHF   =         0.00000000
  -V(xc)+E(xc)   XCENC  =        75.53463959
  PAW double counting   =     18350.57977217   -17441.60386103
  entropy T*S    EENTRO =        -0.00852281
  eigenvalues    EBANDS =     -1914.94383785
  atomic energy  EATOM  =     23359.75576925
  Solvation  Ediel_sol  =         0.00000000
  ---------------------------------------------------
  free energy    TOTEN  =       -78.51100228 eV

  energy without entropy =      -78.50247946  energy(sigma->0) =      -78.50816134


--------------------------------------------------------------------------------------------------------




----------------------------------------- Iteration    1(   9)  ---------------------------------------


    EDDIAG:  cpu time    1.3388: real time    1.3401
  RMM-DIIS:  cpu time    8.4917: real time    8.5020
    ORTHCH:  cpu time    0.1440: real time    0.1439
       DOS:  cpu time    0.0010: real time    0.0010
    --------------------------------------------
      LOOP:  cpu time    9.9785: real time    9.9908

 eigenvalue-minimisations  :   546
 total energy-change (2. order) :-0.6172031E+02  (-0.5581532E+02)
 number of electron     320.0000000 magnetization 
 augmentation part      320.0000000 magnetization 

 Free energy of the ion-electron system (eV)
  ---------------------------------------------------
  alpha Z        PSCENC =       362.61262500
  Ewald energy   TEWEN  =     39681.47931741
  -Hartree energ DENC   =    -62551.91690400
  -exchange      EXHF   =         0.00000000
  -V(xc)+E(xc)   XCENC  =        75.53463959
  PAW double counting   =     18350.57977217   -17441.60386103
  entropy T*S    EENTRO =         0.06916738
  eigenvalues    EBANDS =     -1976.74183434
  atomic energy  EATOM  =     23359.75576925
  Solvation  Ediel_sol  =         0.00000000
  ---------------------------------------------------
  free energy    TOTEN  =      -140.23130858 eV

  energy without entropy =     -140.30047595  energy(sigma->0) =     -140.25436437


--------------------------------------------------------------------------------------------------------




----------------------------------------- Iteration    1(  10)  ---------------------------------------


    EDDIAG:  cpu time    1.3168: real time    1.3170
  RMM-DIIS:  cpu time    8.9236: real time    8.9308
    ORTHCH:  cpu time    0.1440: real time    0.1440
       DOS:  cpu time    0.0010: real time    0.0010
    --------------------------------------------
      LOOP:  cpu time   10.3864: real time   10.3966

 eigenvalue-minimisations  :   584
 total energy-change (2. order) :-0.1204081E+02  (-0.1219564E+02)
 number of electron     320.0000000 magnetization 
 augmentation part      320.0000000 magnetization 

 Free energy of the ion-electron system (eV)
  ---------------------------------------------------
  alpha Z        PSCENC =       362.61262500
  Ewald energy   TEWEN  =     39681.47931741
  -Hartree energ DENC   =    -62551.91690400
  -exchange      EXHF   =         0.00000000
  -V(xc)+E(xc)   XCENC  =        75.53463959
  PAW double counting   =     18350.57977217   -17441.60386103
  entropy T*S    EENTRO =         0.09343877
  eigenvalues    EBANDS =     -1988.80691413
  atomic energy  EATOM  =     23359.75576925
  Solvation  Ediel_sol  =         0.00000000
  ---------------------------------------------------
  free energy    TOTEN  =      -152.27211698 eV

  energy without entropy =     -152.36555574  energy(sigma->0) =     -152.30326323


--------------------------------------------------------------------------------------------------------




----------------------------------------- Iteration    1(  11)  ---------------------------------------


    EDDIAG:  cpu time    1.3168: real time    1.3185
  RMM-DIIS:  cpu time    9.2096: real time    9.2192
    ORTHCH:  cpu time    0.1410: real time    0.1412
       DOS:  cpu time    0.0010: real time    0.0010
    --------------------------------------------
      LOOP:  cpu time   10.6714: real time   10.6834

 eigenvalue-minimisations  :   599
 total energy-change (2. order) :-0.4883398E+01  (-0.4213374E+01)
 number of electron     320.0000000 magnetization 
 augmentation part      320.0000000 magnetization 

 Free energy of the ion-electron system (eV)
  ---------------------------------------------------
  alpha Z        PSCENC =       362.61262500
  Ewald energy   TEWEN  =     39681.47931741
  -Hartree energ DENC   =    -62551.91690400
  -exchange      EXHF   =         0.00000000
  -V(xc)+E(xc)   XCENC  =        75.53463959
  PAW double counting   =     18350.57977217   -17441.60386103
  entropy T*S    EENTRO =         0.02969567
  eigenvalues    EBANDS =     -1993.62656885
  atomic energy  EATOM  =     23359.75576925
  Solvation  Ediel_sol  =         0.00000000
  ---------------------------------------------------
  free energy    TOTEN  =      -157.15551480 eV

  energy without entropy =     -157.18521047  energy(sigma->0) =     -157.16541335


--------------------------------------------------------------------------------------------------------




----------------------------------------- Iteration    1(  12)  ---------------------------------------


    EDDIAG:  cpu time    1.2938: real time    1.2957
  RMM-DIIS:  cpu time    9.4936: real time    9.5012
    ORTHCH:  cpu time    0.1420: real time    0.1418
       DOS:  cpu time    0.0010: real time    0.0011
    CHARGE:  cpu time    0.4639: real time    0.4643
    MIXING:  cpu time    0.0360: real time    0.0362
    --------------------------------------------
      LOOP:  cpu time   11.4333: real time   11.4448

 eigenvalue-minimisations  :   619
 total energy-change (2. order) :-0.1784109E+01  (-0.1166024E+01)
 number of electron     320.0000106 magnetization 
 augmentation part       96.4151516 magnetization 

 Broyden mixing:
  rms(total) = 0.18948E+01    rms(broyden)= 0.18922E+01
  rms(prec ) = 0.22236E+01
  weight for this iteration     100.00

 Free energy of the ion-electron system (eV)
  ---------------------------------------------------
  alpha Z        PSCENC =       362.61262500
  Ewald energy   TEWEN  =     39681.47931741
  -Hartree energ DENC   =    -62551.91690400
  -exchange      EXHF   =         0.00000000
  -V(xc)+E(xc)   XCENC  =        75.53463959
  PAW double counting   =     18350.57977217   -17441.60386103
  entropy T*S    EENTRO =         0.05508828
  eigenvalues    EBANDS =     -1995.43607021
  atomic energy  EATOM  =     23359.75576925
  Solvation  Ediel_sol  =         0.00000000
  ---------------------------------------------------
  free energy    TOTEN  =      -158.93962355 eV

  energy without entropy =     -158.99471182  energy(sigma->0) =     -158.95798631


--------------------------------------------------------------------------------------------------------




----------------------------------------- Iteration    1(  13)  ---------------------------------------


    POTLOK:  cpu time    1.1508: real time    1.1516
    SETDIJ:  cpu time    0.0160: real time    0.0165
    EDDIAG:  cpu time    1.3188: real time    1.3201
  RMM-DIIS:  cpu time    6.7470: real time    6.7521
    ORTHCH:  cpu time    0.1410: real time    0.1424
       DOS:  cpu time    0.0010: real time    0.0011
    CHARGE:  cpu time    0.4539: real time    0.4537
    MIXING:  cpu time    0.0360: real time    0.0360
    --------------------------------------------
      LOOP:  cpu time    9.8675: real time    9.8768

 eigenvalue-minimisations  :   432
 total energy-change (2. order) : 0.5793558E+01  (-0.4695751E+01)
 number of electron     320.0000103 magnetization 
 augmentation part       99.6935235 magnetization 

 Broyden mixing:
  rms(total) = 0.11747E+01    rms(broyden)= 0.11740E+01
  rms(prec ) = 0.17380E+01
  weight for this iteration     100.00

 eigenvalues of (default mixing * dielectric matrix)
  average eigenvalue GAMMA=   0.7940
  0.7940

 Free energy of the ion-electron system (eV)
  ---------------------------------------------------
  alpha Z        PSCENC =       362.61262500
  Ewald energy   TEWEN  =     39681.47931741
  -Hartree energ DENC   =    -62374.46503485
  -exchange      EXHF   =         0.00000000
  -V(xc)+E(xc)   XCENC  =        69.37940028
  PAW double counting   =     18388.24506816   -17511.51076760
  entropy T*S    EENTRO =        -0.28264599
  eigenvalues    EBANDS =     -2128.35979768
  atomic energy  EATOM  =     23359.75576925
  Solvation  Ediel_sol  =         0.00000000
  ---------------------------------------------------
  free energy    TOTEN  =      -153.14606603 eV

  energy without entropy =     -152.86342004  energy(sigma->0) =     -153.05185070


--------------------------------------------------------------------------------------------------------




----------------------------------------- Iteration    1(  14)  ---------------------------------------


    POTLOK:  cpu time    1.1198: real time    1.1209
    SETDIJ:  cpu time    0.0160: real time    0.0166
    EDDIAG:  cpu time    1.3178: real time    1.3185
  RMM-DIIS:  cpu time    6.8640: real time    6.8695
    ORTHCH:  cpu time    0.1440: real time    0.1452
       DOS:  cpu time    0.0010: real time    0.0011
    CHARGE:  cpu time    0.4469: real time    0.4472
    MIXING:  cpu time    0.0370: real time    0.0368
    --------------------------------------------
      LOOP:  cpu time    9.9495: real time    9.9590

 eigenvalue-minimisations  :   440
 total energy-change (2. order) :-0.3595498E+00  (-0.2227729E+01)
 number of electron     320.0000102 magnetization 
 augmentation part      100.4041844 magnetization 

 Broyden mixing:
  rms(total) = 0.11848E+01    rms(broyden)= 0.11837E+01
  rms(prec ) = 0.19483E+01
  weight for this iteration     100.00

 eigenvalues of (default mixing * dielectric matrix)
  average eigenvalue GAMMA=   0.6971
  0.3095  1.0848

 Free energy of the ion-electron system (eV)
  ---------------------------------------------------
  alpha Z        PSCENC =       362.61262500
  Ewald energy   TEWEN  =     39681.47931741
  -Hartree energ DENC   =    -62403.98300682
  -exchange      EXHF   =         0.00000000
  -V(xc)+E(xc)   XCENC  =        67.69641100
  PAW double counting   =     18477.81408961   -17610.63380179
  entropy T*S    EENTRO =        -0.15787567
  eigenvalues    EBANDS =     -2088.08914386
  atomic energy  EATOM  =     23359.75576925
  Solvation  Ediel_sol  =         0.00000000
  ---------------------------------------------------
  free energy    TOTEN  =      -153.50561588 eV

  energy without entropy =     -153.34774021  energy(sigma->0) =     -153.45299066


--------------------------------------------------------------------------------------------------------




----------------------------------------- Iteration    1(  15)  ---------------------------------------


    POTLOK:  cpu time    1.1198: real time    1.1208
    SETDIJ:  cpu time    0.0160: real time    0.0164
    EDDIAG:  cpu time    1.3468: real time    1.3474
  RMM-DIIS:  cpu time    7.5698: real time    7.5767
    ORTHCH:  cpu time    0.1440: real time    0.1438
       DOS:  cpu time    0.0020: real time    0.0011
    CHARGE:  cpu time    0.4539: real time    0.4558
    MIXING:  cpu time    0.0370: real time    0.0370
    --------------------------------------------
      LOOP:  cpu time   10.6914: real time   10.7023

 eigenvalue-minimisations  :   486
 total energy-change (2. order) :-0.4726608E+00  (-0.1240731E+01)
 number of electron     320.0000113 magnetization 
 augmentation part      100.8467505 magnetization 

 Broyden mixing:
  rms(total) = 0.12633E+01    rms(broyden)= 0.12619E+01
  rms(prec ) = 0.20301E+01
  weight for this iteration     100.00

 eigenvalues of (default mixing * dielectric matrix)
  average eigenvalue GAMMA=   0.6088
  1.2715  0.3558  0.1991

 Free energy of the ion-electron system (eV)
  ---------------------------------------------------
  alpha Z        PSCENC =       362.61262500
  Ewald energy   TEWEN  =     39681.47931741
  -Hartree energ DENC   =    -62407.95184044
  -exchange      EXHF   =         0.00000000
  -V(xc)+E(xc)   XCENC  =        67.05324606
  PAW double counting   =     18561.13443668   -17700.56721332
  entropy T*S    EENTRO =        -0.23835749
  eigenvalues    EBANDS =     -2077.25625984
  atomic energy  EATOM  =     23359.75576925
  Solvation  Ediel_sol  =         0.00000000
  ---------------------------------------------------
  free energy    TOTEN  =      -153.97827669 eV

  energy without entropy =     -153.73991921  energy(sigma->0) =     -153.89882420


--------------------------------------------------------------------------------------------------------




----------------------------------------- Iteration    1(  16)  ---------------------------------------


    POTLOK:  cpu time    1.1238: real time    1.1244
    SETDIJ:  cpu time    0.0160: real time    0.0164
    EDDIAG:  cpu time    1.3328: real time    1.3344
  RMM-DIIS:  cpu time    6.6890: real time    6.6940
    ORTHCH:  cpu time    0.1410: real time    0.1410
       DOS:  cpu time    0.0010: real time    0.0011
    CHARGE:  cpu time    0.4489: real time    0.4500
    MIXING:  cpu time    0.0380: real time    0.0382
    --------------------------------------------
      LOOP:  cpu time    9.7935: real time    9.8028

 eigenvalue-minimisations  :   429
 total energy-change (2. order) : 0.2778371E+01  (-0.4626555E+00)
 number of electron     320.0000101 magnetization 
 augmentation part      101.1894400 magnetization 

 Broyden mixing:
  rms(total) = 0.72592E+00    rms(broyden)= 0.72476E+00
  rms(prec ) = 0.10600E+01
  weight for this iteration     100.00

 eigenvalues of (default mixing * dielectric matrix)
  average eigenvalue GAMMA=   0.5400
  1.3159  0.3353  0.3353  0.1736

 Free energy of the ion-electron system (eV)
  ---------------------------------------------------
  alpha Z        PSCENC =       362.61262500
  Ewald energy   TEWEN  =     39681.47931741
  -Hartree energ DENC   =    -62404.73237530
  -exchange      EXHF   =         0.00000000
  -V(xc)+E(xc)   XCENC  =        66.82315222
  PAW double counting   =     18641.83706995   -17786.44748199
  entropy T*S    EENTRO =        -0.32263053
  eigenvalues    EBANDS =     -2072.20535139
  atomic energy  EATOM  =     23359.75576925
  Solvation  Ediel_sol  =         0.00000000
  ---------------------------------------------------
  free energy    TOTEN  =      -151.19990539 eV

  energy without entropy =     -150.87727486  energy(sigma->0) =     -151.09236188


--------------------------------------------------------------------------------------------------------




----------------------------------------- Iteration    1(  17)  ---------------------------------------


    POTLOK:  cpu time    1.1268: real time    1.1273
    SETDIJ:  cpu time    0.0160: real time    0.0164
    EDDIAG:  cpu time    1.3248: real time    1.3256
  RMM-DIIS:  cpu time    6.9309: real time    6.9363
    ORTHCH:  cpu time    0.1430: real time    0.1427
       DOS:  cpu time    0.0010: real time    0.0011
    CHARGE:  cpu time    0.4539: real time    0.4550
    MIXING:  cpu time    0.0390: real time    0.0393
    --------------------------------------------
      LOOP:  cpu time   10.0385: real time   10.0472

 eigenvalue-minimisations  :   447
 total energy-change (2. order) : 0.5421454E+00  (-0.1765957E+00)
 number of electron     320.0000107 magnetization 
 augmentation part      101.3391320 magnetization 

 Broyden mixing:
  rms(total) = 0.39259E+00    rms(broyden)= 0.39171E+00
  rms(prec ) = 0.53223E+00
  weight for this iteration     100.00

 eigenvalues of (default mixing * dielectric matrix)
  average eigenvalue GAMMA=   0.5336
  1.3258  0.4789  0.4789  0.2223  0.1622

 Free energy of the ion-electron system (eV)
  ---------------------------------------------------
  alpha Z        PSCENC =       362.61262500
  Ewald energy   TEWEN  =     39681.47931741
  -Hartree energ DENC   =    -62406.41085704
  -exchange      EXHF   =         0.00000000
  -V(xc)+E(xc)   XCENC  =        66.87312188
  PAW double counting   =     18676.86054627   -17822.80329042
  entropy T*S    EENTRO =        -0.45939605
  eigenvalues    EBANDS =     -2068.56559624
  atomic energy  EATOM  =     23359.75576925
  Solvation  Ediel_sol  =         0.00000000
  ---------------------------------------------------
  free energy    TOTEN  =      -150.65775995 eV

  energy without entropy =     -150.19836391  energy(sigma->0) =     -150.50462794


--------------------------------------------------------------------------------------------------------




----------------------------------------- Iteration    1(  18)  ---------------------------------------


    POTLOK:  cpu time    1.1318: real time    1.1324
    SETDIJ:  cpu time    0.0160: real time    0.0165
    EDDIAG:  cpu time    1.2908: real time    1.2911
  RMM-DIIS:  cpu time    7.1129: real time    7.1179
    ORTHCH:  cpu time    0.1450: real time    0.1450
       DOS:  cpu time    0.0010: real time    0.0011
    CHARGE:  cpu time    0.4479: real time    0.4477
    MIXING:  cpu time    0.0400: real time    0.0400
    --------------------------------------------
      LOOP:  cpu time   10.1865: real time   10.1952

 eigenvalue-minimisations  :   460
 total energy-change (2. order) :-0.1213079E+00  (-0.9928329E-01)
 number of electron     320.0000108 magnetization 
 augmentation part      101.3017369 magnetization 

 Broyden mixing:
  rms(total) = 0.48490E+00    rms(broyden)= 0.48444E+00
  rms(prec ) = 0.76900E+00
  weight for this iteration     100.00

 eigenvalues of (default mixing * dielectric matrix)
  average eigenvalue GAMMA=   0.4966
  1.2935  0.5547  0.5547  0.2511  0.1818  0.1439

 Free energy of the ion-electron system (eV)
  ---------------------------------------------------
  alpha Z        PSCENC =       362.61262500
  Ewald energy   TEWEN  =     39681.47931741
  -Hartree energ DENC   =    -62415.88308894
  -exchange      EXHF   =         0.00000000
  -V(xc)+E(xc)   XCENC  =        67.06460217
  PAW double counting   =     18735.60550416   -17882.98462483
  entropy T*S    EENTRO =        -0.50996100
  eigenvalues    EBANDS =     -2057.91921106
  atomic energy  EATOM  =     23359.75576925
  Solvation  Ediel_sol  =         0.00000000
  ---------------------------------------------------
  free energy    TOTEN  =      -150.77906786 eV

  energy without entropy =     -150.26910686  energy(sigma->0) =     -150.60908086


--------------------------------------------------------------------------------------------------------




----------------------------------------- Iteration    1(  19)  ---------------------------------------


    POTLOK:  cpu time    1.1318: real time    1.1341
    SETDIJ:  cpu time    0.0160: real time    0.0163
    EDDIAG:  cpu time    1.3418: real time    1.3416
  RMM-DIIS:  cpu time    6.9649: real time    6.9705
    ORTHCH:  cpu time    0.1460: real time    0.1464
       DOS:  cpu time    0.0010: real time    0.0011
    CHARGE:  cpu time    0.4509: real time    0.4503
    MIXING:  cpu time    0.0410: real time    0.0411
    --------------------------------------------
      LOOP:  cpu time   10.0945: real time   10.1042

 eigenvalue-minimisations  :   447
 total energy-change (2. order) : 0.9810343E-01  (-0.3116883E-01)
 number of electron     320.0000107 magnetization 
 augmentation part      101.2338265 magnetization 

 Broyden mixing:
  rms(total) = 0.35315E+00    rms(broyden)= 0.35259E+00
  rms(prec ) = 0.57260E+00
  weight for this iteration     100.00

 eigenvalues of (default mixing * dielectric matrix)
  average eigenvalue GAMMA=   0.4860
  1.1961  0.9125  0.4067  0.4067  0.2185  0.1625  0.0990

 Free energy of the ion-electron system (eV)
  ---------------------------------------------------
  alpha Z        PSCENC =       362.61262500
  Ewald energy   TEWEN  =     39681.47931741
  -Hartree energ DENC   =    -62423.36448497
  -exchange      EXHF   =         0.00000000
  -V(xc)+E(xc)   XCENC  =        67.17516550
  PAW double counting   =     18768.39951243   -17916.42352496
  entropy T*S    EENTRO =        -0.55694957
  eigenvalues    EBANDS =     -2049.75839451
  atomic energy  EATOM  =     23359.75576925
  Solvation  Ediel_sol  =         0.00000000
  ---------------------------------------------------
  free energy    TOTEN  =      -150.68096443 eV

  energy without entropy =     -150.12401486  energy(sigma->0) =     -150.49531457


--------------------------------------------------------------------------------------------------------




----------------------------------------- Iteration    1(  20)  ---------------------------------------


    POTLOK:  cpu time    1.1338: real time    1.1359
    SETDIJ:  cpu time    0.0170: real time    0.0164
    EDDIAG:  cpu time    1.2968: real time    1.2973
  RMM-DIIS:  cpu time    6.6650: real time    6.6708
    ORTHCH:  cpu time    0.1430: real time    0.1429
       DOS:  cpu time    0.0010: real time    0.0012
    CHARGE:  cpu time    0.4619: real time    0.4628
    MIXING:  cpu time    0.0420: real time    0.0422
    --------------------------------------------
      LOOP:  cpu time    9.7615: real time    9.7725

 eigenvalue-minimisations  :   426
 total energy-change (2. order) : 0.5560718E-01  (-0.1650001E-01)
 number of electron     320.0000106 magnetization 
 augmentation part      101.1385023 magnetization 

 Broyden mixing:
  rms(total) = 0.24384E+00    rms(broyden)= 0.24344E+00
  rms(prec ) = 0.35072E+00
  weight for this iteration     100.00

 eigenvalues of (default mixing * dielectric matrix)
  average eigenvalue GAMMA=   0.5369
  1.3282  0.8981  0.8981  0.4881  0.2569  0.1896  0.1487  0.0873

 Free energy of the ion-electron system (eV)
  ---------------------------------------------------
  alpha Z        PSCENC =       362.61262500
  Ewald energy   TEWEN  =     39681.47931741
  -Hartree energ DENC   =    -62432.44504017
  -exchange      EXHF   =         0.00000000
  -V(xc)+E(xc)   XCENC  =        67.28562796
  PAW double counting   =     18804.14995609   -17952.86801785
  entropy T*S    EENTRO =        -0.58307858
  eigenvalues    EBANDS =     -2040.01251635
  atomic energy  EATOM  =     23359.75576925
  Solvation  Ediel_sol  =         0.00000000
  ---------------------------------------------------
  free energy    TOTEN  =      -150.62535725 eV

  energy without entropy =     -150.04227867  energy(sigma->0) =     -150.43099773


--------------------------------------------------------------------------------------------------------




----------------------------------------- Iteration    1(  21)  ---------------------------------------


    POTLOK:  cpu time    1.1388: real time    1.1409
    SETDIJ:  cpu time    0.0170: real time    0.0165
    EDDIAG:  cpu time    1.3398: real time    1.3402
  RMM-DIIS:  cpu time    6.1841: real time    6.1913
    ORTHCH:  cpu time    0.1450: real time    0.1448
       DOS:  cpu time    0.0010: real time    0.0012
    CHARGE:  cpu time    0.4479: real time    0.4478
    MIXING:  cpu time    0.0440: real time    0.0434
    --------------------------------------------
      LOOP:  cpu time    9.3196: real time    9.3294

 eigenvalue-minimisations  :   396
 total energy-change (2. order) :-0.9418745E-02  (-0.1514312E-01)
 number of electron     320.0000107 magnetization 
 augmentation part      101.0826572 magnetization 

 Broyden mixing:
  rms(total) = 0.23443E+00    rms(broyden)= 0.23414E+00
  rms(prec ) = 0.32964E+00
  weight for this iteration     100.00

 eigenvalues of (default mixing * dielectric matrix)
  average eigenvalue GAMMA=   0.5933
  1.8664  1.0555  1.0555  0.3831  0.3423  0.2266  0.1779  0.1461  0.0865

 Free energy of the ion-electron system (eV)
  ---------------------------------------------------
  alpha Z        PSCENC =       362.61262500
  Ewald energy   TEWEN  =     39681.47931741
  -Hartree energ DENC   =    -62442.74727626
  -exchange      EXHF   =         0.00000000
  -V(xc)+E(xc)   XCENC  =        67.34987247
  PAW double counting   =     18848.89228872   -17998.90528097
  entropy T*S    EENTRO =        -0.56925219
  eigenvalues    EBANDS =     -2028.50283942
  atomic energy  EATOM  =     23359.75576925
  Solvation  Ediel_sol  =         0.00000000
  ---------------------------------------------------
  free energy    TOTEN  =      -150.63477600 eV

  energy without entropy =     -150.06552380  energy(sigma->0) =     -150.44502527


--------------------------------------------------------------------------------------------------------




----------------------------------------- Iteration    1(  22)  ---------------------------------------


    POTLOK:  cpu time    1.1448: real time    1.1469
    SETDIJ:  cpu time    0.0170: real time    0.0164
    EDDIAG:  cpu time    1.3158: real time    1.3159
  RMM-DIIS:  cpu time    6.4190: real time    6.4247
    ORTHCH:  cpu time    0.1420: real time    0.1427
       DOS:  cpu time    0.0020: real time    0.0012
    CHARGE:  cpu time    0.4539: real time    0.4540
    MIXING:  cpu time    0.0460: real time    0.0460
    --------------------------------------------
      LOOP:  cpu time    9.5415: real time    9.5510

 eigenvalue-minimisations  :   410
 total energy-change (2. order) : 0.8442982E-03  (-0.9821952E-02)
 number of electron     320.0000106 magnetization 
 augmentation part      101.0318616 magnetization 

 Broyden mixing:
  rms(total) = 0.26746E+00    rms(broyden)= 0.26716E+00
  rms(prec ) = 0.45387E+00
  weight for this iteration     100.00

 eigenvalues of (default mixing * dielectric matrix)
  average eigenvalue GAMMA=   0.5802
  2.0496  1.0872  1.0872  0.3893  0.3893  0.2331  0.1862  0.1471  0.1471  0.0865

 Free energy of the ion-electron system (eV)
  ---------------------------------------------------
  alpha Z        PSCENC =       362.61262500
  Ewald energy   TEWEN  =     39681.47931741
  -Hartree energ DENC   =    -62452.64530166
  -exchange      EXHF   =         0.00000000
  -V(xc)+E(xc)   XCENC  =        67.40153793
  PAW double counting   =     18894.02802403   -18045.54997617
  entropy T*S    EENTRO =        -0.56508152
  eigenvalues    EBANDS =     -2017.15084596
  atomic energy  EATOM  =     23359.75576925
  Solvation  Ediel_sol  =         0.00000000
  ---------------------------------------------------
  free energy    TOTEN  =      -150.63393170 eV

  energy without entropy =     -150.06885018  energy(sigma->0) =     -150.44557119


--------------------------------------------------------------------------------------------------------




----------------------------------------- Iteration    1(  23)  ---------------------------------------


    POTLOK:  cpu time    1.1458: real time    1.1477
    SETDIJ:  cpu time    0.0170: real time    0.0165
    EDDIAG:  cpu time    1.3078: real time    1.3090
  RMM-DIIS:  cpu time    6.3140: real time    6.3202
    ORTHCH:  cpu time    0.1430: real time    0.1426
       DOS:  cpu time    0.0010: real time    0.0012
    CHARGE:  cpu time    0.4599: real time    0.4606
    MIXING:  cpu time    0.0460: real time    0.0458
    --------------------------------------------
      LOOP:  cpu time    9.4356: real time    9.4469

 eigenvalue-minimisations  :   403
 total energy-change (2. order) : 0.4216444E-01  (-0.4059790E-02)
 number of electron     320.0000106 magnetization 
 augmentation part      101.0381578 magnetization 

 Broyden mixing:
  rms(total) = 0.16887E+00    rms(broyden)= 0.16854E+00
  rms(prec ) = 0.27861E+00
  weight for this iteration     100.00

 eigenvalues of (default mixing * dielectric matrix)
  average eigenvalue GAMMA=   0.5872
  2.2651  1.1256  1.1256  0.4783  0.4783  0.2422  0.2422  0.1793  0.1475  0.0865
  0.0891

 Free energy of the ion-electron system (eV)
  ---------------------------------------------------
  alpha Z        PSCENC =       362.61262500
  Ewald energy   TEWEN  =     39681.47931741
  -Hartree energ DENC   =    -62454.60683949
  -exchange      EXHF   =         0.00000000
  -V(xc)+E(xc)   XCENC  =        67.41175535
  PAW double counting   =     18904.37971420   -18056.30322024
  entropy T*S    EENTRO =        -0.58281859
  eigenvalues    EBANDS =     -2014.73807014
  atomic energy  EATOM  =     23359.75576925
  Solvation  Ediel_sol  =         0.00000000
  ---------------------------------------------------
  free energy    TOTEN  =      -150.59176726 eV

  energy without entropy =     -150.00894867  energy(sigma->0) =     -150.39749440


--------------------------------------------------------------------------------------------------------




----------------------------------------- Iteration    1(  24)  ---------------------------------------


    POTLOK:  cpu time    1.1518: real time    1.1520
    SETDIJ:  cpu time    0.0160: real time    0.0164
    EDDIAG:  cpu time    1.3248: real time    1.3256
  RMM-DIIS:  cpu time    6.1301: real time    6.1357
    ORTHCH:  cpu time    0.1450: real time    0.1446
       DOS:  cpu time    0.0010: real time    0.0012
    CHARGE:  cpu time    0.4479: real time    0.4475
    MIXING:  cpu time    0.0470: real time    0.0471
    --------------------------------------------
      LOOP:  cpu time    9.2646: real time    9.2734

 eigenvalue-minimisations  :   388
 total energy-change (2. order) : 0.2717090E-01  (-0.3922887E-02)
 number of electron     320.0000106 magnetization 
 augmentation part      101.0790825 magnetization 

 Broyden mixing:
  rms(total) = 0.10249E+00    rms(broyden)= 0.10230E+00
  rms(prec ) = 0.14859E+00
  weight for this iteration     100.00

 eigenvalues of (default mixing * dielectric matrix)
  average eigenvalue GAMMA=   0.5795
  2.3870  1.1396  1.1396  0.5322  0.5322  0.2679  0.2679  0.1924  0.1748  0.1465
  0.0867  0.0867

 Free energy of the ion-electron system (eV)
  ---------------------------------------------------
  alpha Z        PSCENC =       362.61262500
  Ewald energy   TEWEN  =     39681.47931741
  -Hartree energ DENC   =    -62455.90583468
  -exchange      EXHF   =         0.00000000
  -V(xc)+E(xc)   XCENC  =        67.43617352
  PAW double counting   =     18913.98747253   -18066.33525711
  entropy T*S    EENTRO =        -0.59678582
  eigenvalues    EBANDS =     -2012.99807646
  atomic energy  EATOM  =     23359.75576925
  Solvation  Ediel_sol  =         0.00000000
  ---------------------------------------------------
  free energy    TOTEN  =      -150.56459636 eV

  energy without entropy =     -149.96781054  energy(sigma->0) =     -150.36566775


--------------------------------------------------------------------------------------------------------




----------------------------------------- Iteration    1(  25)  ---------------------------------------


    POTLOK:  cpu time    1.1538: real time    1.1544
    SETDIJ:  cpu time    0.0170: real time    0.0165
    EDDIAG:  cpu time    1.2998: real time    1.3017
  RMM-DIIS:  cpu time    6.4030: real time    6.4092
    ORTHCH:  cpu time    0.1410: real time    0.1407
       DOS:  cpu time    0.0010: real time    0.0012
    CHARGE:  cpu time    0.4489: real time    0.4500
    MIXING:  cpu time    0.0490: real time    0.0489
    --------------------------------------------
      LOOP:  cpu time    9.5156: real time    9.5258

 eigenvalue-minimisations  :   405
 total energy-change (2. order) : 0.1282428E-01  (-0.2087790E-02)
 number of electron     320.0000106 magnetization 
 augmentation part      101.0907184 magnetization 

 Broyden mixing:
  rms(total) = 0.62355E-01    rms(broyden)= 0.62237E-01
  rms(prec ) = 0.90442E-01
  weight for this iteration     100.00

 eigenvalues of (default mixing * dielectric matrix)
  average eigenvalue GAMMA=   0.5686
  2.4467  1.0969  1.0969  0.7728  0.4120  0.4120  0.2571  0.2327  0.1768  0.1701
  0.1453  0.0865  0.0865

 Free energy of the ion-electron system (eV)
  ---------------------------------------------------
  alpha Z        PSCENC =       362.61262500
  Ewald energy   TEWEN  =     39681.47931741
  -Hartree energ DENC   =    -62457.50402293
  -exchange      EXHF   =         0.00000000
  -V(xc)+E(xc)   XCENC  =        67.46549803
  PAW double counting   =     18919.36657852   -18071.91652053
  entropy T*S    EENTRO =        -0.60953332
  eigenvalues    EBANDS =     -2011.20148350
  atomic energy  EATOM  =     23359.75576925
  Solvation  Ediel_sol  =         0.00000000
  ---------------------------------------------------
  free energy    TOTEN  =      -150.55177207 eV

  energy without entropy =     -149.94223875  energy(sigma->0) =     -150.34859430


--------------------------------------------------------------------------------------------------------




----------------------------------------- Iteration    1(  26)  ---------------------------------------


    POTLOK:  cpu time    1.1558: real time    1.1563
    SETDIJ:  cpu time    0.0160: real time    0.0165
    EDDIAG:  cpu time    1.3228: real time    1.3224
  RMM-DIIS:  cpu time    6.4440: real time    6.4496
    ORTHCH:  cpu time    0.1430: real time    0.1432
       DOS:  cpu time    0.0010: real time    0.0011
    CHARGE:  cpu time    0.4469: real time    0.4467
    MIXING:  cpu time    0.0490: real time    0.0496
    --------------------------------------------
      LOOP:  cpu time    9.5805: real time    9.5884

 eigenvalue-minimisations  :   405
 total energy-change (2. order) : 0.5205111E-02  (-0.9050009E-03)
 number of electron     320.0000106 magnetization 
 augmentation part      101.0829425 magnetization 

 Broyden mixing:
  rms(total) = 0.54626E-01    rms(broyden)= 0.54563E-01
  rms(prec ) = 0.84974E-01
  weight for this iteration     100.00

 eigenvalues of (default mixing * dielectric matrix)
  average eigenvalue GAMMA=   0.5786
  2.4175  1.1271  1.1271  1.0142  0.5087  0.5087  0.2717  0.2717  0.2059  0.1831
  0.1486  0.1426  0.0865  0.0865

 Free energy of the ion-electron system (eV)
  ---------------------------------------------------
  alpha Z        PSCENC =       362.61262500
  Ewald energy   TEWEN  =     39681.47931741
  -Hartree energ DENC   =    -62459.82269042
  -exchange      EXHF   =         0.00000000
  -V(xc)+E(xc)   XCENC  =        67.49722808
  PAW double counting   =     18923.20518542   -18075.82520925
  entropy T*S    EENTRO =        -0.61229642
  eigenvalues    EBANDS =     -2008.83649603
  atomic energy  EATOM  =     23359.75576925
  Solvation  Ediel_sol  =         0.00000000
  ---------------------------------------------------
  free energy    TOTEN  =      -150.54656696 eV

  energy without entropy =     -149.93427054  energy(sigma->0) =     -150.34246816


--------------------------------------------------------------------------------------------------------




----------------------------------------- Iteration    1(  27)  ---------------------------------------


    POTLOK:  cpu time    1.1498: real time    1.1519
    SETDIJ:  cpu time    0.0170: real time    0.0166
    EDDIAG:  cpu time    1.3308: real time    1.3322
  RMM-DIIS:  cpu time    6.1301: real time    6.1354
    ORTHCH:  cpu time    0.1420: real time    0.1419
       DOS:  cpu time    0.0020: real time    0.0012
    CHARGE:  cpu time    0.4529: real time    0.4534
    MIXING:  cpu time    0.0520: real time    0.0523
    --------------------------------------------
      LOOP:  cpu time    9.2786: real time    9.2881

 eigenvalue-minimisations  :   392
 total energy-change (2. order) : 0.4650833E-02  (-0.4661651E-03)
 number of electron     320.0000106 magnetization 
 augmentation part      101.0831526 magnetization 

 Broyden mixing:
  rms(total) = 0.33776E-01    rms(broyden)= 0.33713E-01
  rms(prec ) = 0.50388E-01
  weight for this iteration     100.00

 eigenvalues of (default mixing * dielectric matrix)
  average eigenvalue GAMMA=   0.5878
  2.4283  1.3962  1.1423  1.1423  0.5203  0.5203  0.3376  0.2520  0.2520  0.1842
  0.1842  0.1446  0.1394  0.0865  0.0865

 Free energy of the ion-electron system (eV)
  ---------------------------------------------------
  alpha Z        PSCENC =       362.61262500
  Ewald energy   TEWEN  =     39681.47931741
  -Hartree energ DENC   =    -62461.88105737
  -exchange      EXHF   =         0.00000000
  -V(xc)+E(xc)   XCENC  =        67.51048706
  PAW double counting   =     18921.80614716   -18074.39091676
  entropy T*S    EENTRO =        -0.60488868
  eigenvalues    EBANDS =     -2006.82939919
  atomic energy  EATOM  =     23359.75576925
  Solvation  Ediel_sol  =         0.00000000
  ---------------------------------------------------
  free energy    TOTEN  =      -150.54191613 eV

  energy without entropy =     -149.93702745  energy(sigma->0) =     -150.34028657


--------------------------------------------------------------------------------------------------------




----------------------------------------- Iteration    1(  28)  ---------------------------------------


    POTLOK:  cpu time    1.1558: real time    1.1577
    SETDIJ:  cpu time    0.0170: real time    0.0166
    EDDIAG:  cpu time    1.3118: real time    1.3124
  RMM-DIIS:  cpu time    6.2031: real time    6.2082
    ORTHCH:  cpu time    0.1420: real time    0.1428
       DOS:  cpu time    0.0020: real time    0.0012
    CHARGE:  cpu time    0.4589: real time    0.4599
    MIXING:  cpu time    0.0530: real time    0.0530
    --------------------------------------------
      LOOP:  cpu time    9.3466: real time    9.3552

 eigenvalue-minimisations  :   394
 total energy-change (2. order) : 0.2779367E-02  (-0.2765388E-03)
 number of electron     320.0000106 magnetization 
 augmentation part      101.0757176 magnetization 

 Broyden mixing:
  rms(total) = 0.22813E-01    rms(broyden)= 0.22774E-01
  rms(prec ) = 0.34363E-01
  weight for this iteration     100.00

 eigenvalues of (default mixing * dielectric matrix)
  average eigenvalue GAMMA=   0.6078
  2.4617  1.7503  1.1020  1.1020  0.7599  0.4741  0.4741  0.2921  0.2518  0.2355
  0.1820  0.1820  0.1450  0.1393  0.0865  0.0865

 Free energy of the ion-electron system (eV)
  ---------------------------------------------------
  alpha Z        PSCENC =       362.61262500
  Ewald energy   TEWEN  =     39681.47931741
  -Hartree energ DENC   =    -62464.85797863
  -exchange      EXHF   =         0.00000000
  -V(xc)+E(xc)   XCENC  =        67.53724099
  PAW double counting   =     18922.40761799   -18074.98985764
  entropy T*S    EENTRO =        -0.60217650
  eigenvalues    EBANDS =     -2003.88169462
  atomic energy  EATOM  =     23359.75576925
  Solvation  Ediel_sol  =         0.00000000
  ---------------------------------------------------
  free energy    TOTEN  =      -150.53913676 eV

  energy without entropy =     -149.93696026  energy(sigma->0) =     -150.33841126


--------------------------------------------------------------------------------------------------------




----------------------------------------- Iteration    1(  29)  ---------------------------------------


    POTLOK:  cpu time    1.1548: real time    1.1568
    SETDIJ:  cpu time    0.0160: real time    0.0164
    EDDIAG:  cpu time    1.3358: real time    1.3378
  RMM-DIIS:  cpu time    6.3830: real time    6.3883
    ORTHCH:  cpu time    0.1420: real time    0.1421
       DOS:  cpu time    0.0010: real time    0.0012
    CHARGE:  cpu time    0.4569: real time    0.4570
    MIXING:  cpu time    0.0550: real time    0.0551
    --------------------------------------------
      LOOP:  cpu time    9.5475: real time    9.5577

 eigenvalue-minimisations  :   402
 total energy-change (2. order) : 0.1909932E-02  (-0.1574064E-03)
 number of electron     320.0000106 magnetization 
 augmentation part      101.0784087 magnetization 

 Broyden mixing:
  rms(total) = 0.17552E-01    rms(broyden)= 0.17527E-01
  rms(prec ) = 0.26625E-01
  weight for this iteration     100.00

 eigenvalues of (default mixing * dielectric matrix)
  average eigenvalue GAMMA=   0.6066
  2.5157  1.9032  1.0583  1.0583  0.9461  0.4869  0.4869  0.3068  0.2725  0.2396
  0.2209  0.1802  0.1802  0.1451  0.1388  0.0865  0.0865

 Free energy of the ion-electron system (eV)
  ---------------------------------------------------
  alpha Z        PSCENC =       362.61262500
  Ewald energy   TEWEN  =     39681.47931741
  -Hartree energ DENC   =    -62467.39070629
  -exchange      EXHF   =         0.00000000
  -V(xc)+E(xc)   XCENC  =        67.56367843
  PAW double counting   =     18922.09344609   -18074.66831218
  entropy T*S    EENTRO =        -0.60460174
  eigenvalues    EBANDS =     -2001.37844280
  atomic energy  EATOM  =     23359.75576925
  Solvation  Ediel_sol  =         0.00000000
  ---------------------------------------------------
  free energy    TOTEN  =      -150.53722683 eV

  energy without entropy =     -149.93262509  energy(sigma->0) =     -150.33569292


--------------------------------------------------------------------------------------------------------




----------------------------------------- Iteration    1(  30)  ---------------------------------------


    POTLOK:  cpu time    1.1548: real time    1.1553
    SETDIJ:  cpu time    0.0170: real time    0.0164
    EDDIAG:  cpu time    1.2648: real time    1.2676
  RMM-DIIS:  cpu time    4.9932: real time    4.9953
    ORTHCH:  cpu time    0.1450: real time    0.1451
       DOS:  cpu time    0.0010: real time    0.0011
    CHARGE:  cpu time    0.4429: real time    0.4429
    MIXING:  cpu time    0.0560: real time    0.0561
    --------------------------------------------
      LOOP:  cpu time    8.0758: real time    8.0829

 eigenvalue-minimisations  :   314
 total energy-change (2. order) : 0.8839269E-03  (-0.7649859E-04)
 number of electron     320.0000106 magnetization 
 augmentation part      101.0808869 magnetization 

 Broyden mixing:
  rms(total) = 0.78230E-02    rms(broyden)= 0.77906E-02
  rms(prec ) = 0.13787E-01
  weight for this iteration     100.00

 eigenvalues of (default mixing * dielectric matrix)
  average eigenvalue GAMMA=   0.6111
  2.5225  2.0358  1.0443  1.0443  1.0189  0.4915  0.4915  0.5147  0.3217  0.2474
  0.2474  0.2048  0.1793  0.1793  0.1450  0.1388  0.0865  0.0865

 Free energy of the ion-electron system (eV)
  ---------------------------------------------------
  alpha Z        PSCENC =       362.61262500
  Ewald energy   TEWEN  =     39681.47931741
  -Hartree energ DENC   =    -62469.26977710
  -exchange      EXHF   =         0.00000000
  -V(xc)+E(xc)   XCENC  =        67.58244565
  PAW double counting   =     18921.50621874   -18074.07315141
  entropy T*S    EENTRO =        -0.60705494
  eigenvalues    EBANDS =     -1999.52273550
  atomic energy  EATOM  =     23359.75576925
  Solvation  Ediel_sol  =         0.00000000
  ---------------------------------------------------
  free energy    TOTEN  =      -150.53634290 eV

  energy without entropy =     -149.92928797  energy(sigma->0) =     -150.33399126


--------------------------------------------------------------------------------------------------------




----------------------------------------- Iteration    1(  31)  ---------------------------------------


    POTLOK:  cpu time    1.1508: real time    1.1531
    SETDIJ:  cpu time    0.0170: real time    0.0169
    EDDIAG:  cpu time    1.2808: real time    1.2812
  RMM-DIIS:  cpu time    5.0262: real time    5.0302
    ORTHCH:  cpu time    0.1440: real time    0.1440
       DOS:  cpu time    0.0010: real time    0.0011
    --------------------------------------------
      LOOP:  cpu time    7.6218: real time    7.6309

 eigenvalue-minimisations  :   311
 total energy-change (2. order) :-0.3559213E-04  (-0.6465152E-04)
 number of electron     320.0000106 magnetization 
 augmentation part      101.0808869 magnetization 

 Free energy of the ion-electron system (eV)
  ---------------------------------------------------
  alpha Z        PSCENC =       362.61262500
  Ewald energy   TEWEN  =     39681.47931741
  -Hartree energ DENC   =    -62471.26595032
  -exchange      EXHF   =         0.00000000
  -V(xc)+E(xc)   XCENC  =        67.59921255
  PAW double counting   =     18920.22156679   -18072.76428174
  entropy T*S    EENTRO =        -0.60851110
  eigenvalues    EBANDS =     -1997.56612632
  atomic energy  EATOM  =     23359.75576925
  Solvation  Ediel_sol  =         0.00000000
  ---------------------------------------------------
  free energy    TOTEN  =      -150.53637850 eV

  energy without entropy =     -149.92786739  energy(sigma->0) =     -150.33354146


--------------------------------------------------------------------------------------------------------




 average (electrostatic) potential at core
  the test charge radii are     1.2059
  (the norm of the test charge is              1.0000)
       1 -58.8755       2 -59.8354       3 -59.8354       4 -59.8350       5 -59.4645
       6 -59.4687       7 -59.4721       8 -60.6483       9 -59.4678      10 -59.4646
      11 -60.6478      12 -59.4693      13 -59.8298      14 -58.8742      15 -59.8364
      16 -59.8378      17 -59.4680      18 -60.6488      19 -59.4701      20 -59.4683
      21 -59.8411      22 -59.8456      23 -58.8814      24 -59.8385      25 -59.8340
      26 -59.8409      27 -59.8270      28 -58.8822      29 -60.6478      30 -59.4615
      31 -59.4665      32 -59.4650
 
 
 
 E-fermi :  -3.7549     XC(G=0):  -2.8933     alpha+bet : -1.5678


 k-point     1 :       0.0000    0.0000    0.0000
  band No.  band energies     occupation 
      1     -11.8811      2.00000
      2     -10.3465      2.00000
      3     -10.3460      2.00000
      4     -10.3446      2.00000
      5     -10.1031      2.00000
      6      -9.6165      2.00000
      7      -9.6132      2.00000
      8      -9.6109      2.00000
      9      -9.3629      2.00000
     10      -9.3622      2.00000
     11      -9.3615      2.00000
     12      -9.2751      2.00000
     13      -9.2749      2.00000
     14      -9.1022      2.00000
     15      -9.1008      2.00000
     16      -9.0071      2.00000
     17      -8.7649      2.00000
     18      -8.7634      2.00000
     19      -8.7631      2.00000
     20      -8.6386      2.00000
     21      -8.6378      2.00000
[...]
     60      -6.7249      2.00000
     61      -6.7247      2.00000
     62      -6.6320      2.00000
     63      -6.6316      2.00000
     64      -6.5676      2.00000
     65      -6.5034      2.00000
     66      -6.5031      2.00000
     67      -6.5025      2.00000
     68      -6.3859      2.00000
     69      -6.3849      2.00000
     70      -6.3845      2.00000
     71      -6.3843      2.00000
     72      -6.3839      2.00000
     73      -6.3835      2.00000
     74      -6.1264      2.00000
     75      -6.1252      2.00000
     76      -6.1247      2.00000
     77      -6.1085      2.00000
     78      -5.8597      2.00000
     79      -5.8594      2.00000
     80      -5.7651      2.00000
     81      -5.7642      2.00000
     82      -5.7628      2.00000
     83      -5.7198      2.00000
     84      -5.7197      2.00000
     85      -5.7193      2.00000
     86      -5.6311      2.00000
     87      -5.5426      2.00000
     88      -5.5409      2.00000
     89      -5.5407      2.00000
     90      -5.4596      2.00000
     91      -5.4584      2.00000
     92      -5.4576      2.00000
     93      -5.4019      2.00000
     94      -5.4017      2.00000
     95      -5.3501      2.00000
     96      -5.3497      2.00000
     97      -5.3494      2.00000
     98      -5.3474      2.00000
     99      -5.0917      2.00000
    100      -5.0913      2.00000
    101      -5.0189      2.00000
    102      -5.0186      2.00000
    103      -5.0185      2.00000
    104      -4.9877      2.00000
    105      -4.9869      2.00000
    106      -4.9864      2.00000
    107      -4.9252      2.00000
    108      -4.9249      2.00000
    109      -4.9246      2.00000
    110      -4.8891      2.00000
    111      -4.7979      2.00000
    112      -4.7972      2.00000
    113      -4.7968      2.00000
    114      -4.7797      2.00000
    115      -4.7791      2.00000
    116      -4.7663      2.00000
    117      -4.7655      2.00000
    118      -4.7653      2.00000
    119      -4.6886      2.00000
    120      -4.6883      2.00000
    121      -4.6882      2.00000
    122      -4.6450      2.00000
    123      -4.6448      2.00000
    124      -4.6446      2.00000
    125      -4.5815      2.00000
    126      -4.5811      2.00000
    127      -4.4312      2.00001
    128      -4.4311      2.00001
    129      -4.4309      2.00001
    130      -4.2864      2.00059
    131      -4.2682      2.00093
    132      -4.2679      2.00093
    133      -4.2517      2.00138
    134      -4.2515      2.00139
    135      -4.2509      2.00141
    136      -4.1599      2.00943
    137      -4.1596      2.00948
    138      -4.1592      2.00956
    139      -4.1566      2.01002
    140      -4.0731      2.03539
    141      -4.0731      2.03541
    142      -4.0726      2.03561
    143      -4.0417      2.04961
    144      -4.0412      2.04982
    145      -3.8963      1.99713
    146      -3.8958      1.99604
    147      -3.8956      1.99555
    148      -3.8684      1.91720
    149      -3.8683      1.91664
    150      -3.8673      1.91323
    151      -3.8468      1.82925
    152      -3.8463      1.82692
    153      -3.8457      1.82433
    154      -3.8240      1.71143
    155      -3.8238      1.70988
    156      -3.7467      1.14786
    157      -3.7466      1.14699
    158      -3.7409      1.09905
    159      -3.7374      1.06921
    160      -3.7370      1.06649
    161      -3.7370      1.06610
    162      -3.7113      0.84933
    163      -3.7110      0.84700
    164      -3.7108      0.84486
    165      -3.6775      0.57850
    166      -3.6772      0.57590
    167      -3.6769      0.57421
    168      -3.6266      0.24595
    169      -3.0125      0.00000
    170      -3.0121      0.00000
    171      -3.0119      0.00000
    172      -2.9827      0.00000
    173      -2.9826      0.00000
    174      -2.9821      0.00000
    175      -2.5884      0.00000
    176      -2.5882      0.00000
    177      -2.5880      0.00000
    178      -1.8744      0.00000
    179      -1.8744      0.00000
    180      -1.8736      0.00000
    181      -1.7869      0.00000
    182      -1.7861      0.00000
    183      -1.7855      0.00000
    184      -1.3513      0.00000
    185      -1.0433      0.00000
    186      -1.0432      0.00000
    187      -0.5730      0.00000
    188      -0.5722      0.00000
    189      -0.5692      0.00000
    190      -0.3917      0.00000
    191      -0.3390      0.00000
    192      -0.1779      0.00000


--------------------------------------------------------------------------------------------------------


 soft charge-density along one line, spin component           1
         0         1         2         3         4         5         6         7         8         9
 total charge-density along one line
 
 pseudopotential strength for first ion, spin component:           1
-11.253   0.008   0.024   0.008   0.000   0.238  -0.001  -0.003
  0.008 -11.253  -0.012   0.008   0.021  -0.001   0.238   0.001
  0.024  -0.012 -11.240  -0.012   0.000  -0.003   0.001   0.237
  0.008   0.008  -0.012 -11.253  -0.021  -0.001  -0.001   0.001
  0.000   0.021   0.000  -0.021 -11.239   0.000  -0.002   0.000
  0.238  -0.001  -0.003  -0.001   0.000   0.171   0.000   0.000
 -0.001   0.238   0.001  -0.001  -0.002   0.000   0.171   0.000
 -0.003   0.001   0.237   0.001   0.000   0.000   0.000   0.171
 -0.001  -0.001   0.001   0.238   0.002   0.000   0.000   0.000
  0.000  -0.002   0.000   0.002   0.237   0.000   0.000   0.000
  0.007   0.007   0.000   0.007   0.000   0.000   0.000   0.000
  0.000   0.000   0.000   0.000   0.000   0.000   0.000   0.000
 -0.015  -0.015   0.009   0.001   0.016   0.002   0.002  -0.001
  0.001  -0.015  -0.018  -0.015   0.000   0.000   0.002   0.002
 -0.015   0.001   0.009  -0.015  -0.016   0.002   0.000  -0.001
  0.011   0.011  -0.007   0.000  -0.012  -0.001  -0.001   0.001
  0.000   0.011   0.013   0.011   0.000   0.000  -0.001  -0.002
  0.011   0.000  -0.007   0.011   0.012  -0.001   0.000   0.001
 total augmentation occupancy for first ion, spin component:           1
  1.766   0.067   0.046   0.067   0.000   0.081  -0.039  -0.071  -0.039   0.000  -0.026  -0.007   0.021  -0.054   0.021  -0.019
  0.067   1.766  -0.023   0.067   0.040  -0.039   0.081   0.035  -0.039  -0.061  -0.026  -0.007   0.021   0.021  -0.054  -0.019
  0.046  -0.023   1.809  -0.023   0.000  -0.070   0.035   0.014   0.035   0.000   0.000   0.000  -0.004   0.009  -0.004   0.011
  0.067   0.067  -0.023   1.766  -0.040  -0.039  -0.039   0.036   0.081   0.061  -0.026  -0.007  -0.054   0.021   0.021   0.002
  0.000   0.040   0.000  -0.040   1.809   0.000  -0.061   0.000   0.061   0.014   0.000   0.000  -0.007   0.000   0.007   0.019
  0.081  -0.039  -0.070  -0.039   0.000   0.139   0.020  -0.039   0.020   0.000   0.075  -0.042   0.049  -0.003   0.049  -0.003
 -0.039   0.081   0.035  -0.039  -0.061   0.020   0.139   0.020   0.020  -0.034   0.075  -0.042   0.049   0.049  -0.003  -0.003
 -0.071   0.035   0.014   0.036   0.000  -0.039   0.020   0.134   0.020   0.000   0.000   0.000  -0.026   0.052  -0.026   0.001
 -0.039  -0.039   0.035   0.081   0.061   0.020   0.020   0.020   0.139   0.034   0.075  -0.042  -0.003   0.049   0.049   0.001
  0.000  -0.061   0.000   0.061   0.014   0.000  -0.034   0.000   0.034   0.134   0.000   0.000  -0.045   0.000   0.045   0.003
 -0.026  -0.026   0.000  -0.026   0.000   0.075   0.075   0.000   0.075   0.000   1.243  -0.259   0.108   0.108   0.108  -0.009
 -0.007  -0.007   0.000  -0.007   0.000  -0.042  -0.042   0.000  -0.042   0.000  -0.259   0.100  -0.044  -0.044  -0.044   0.003
  0.021   0.021  -0.004  -0.054  -0.007   0.049   0.049  -0.026  -0.003  -0.045   0.108  -0.044   0.058   0.007   0.008  -0.003
 -0.054   0.021   0.009   0.021   0.000  -0.003   0.049   0.052   0.049   0.000   0.108  -0.044   0.007   0.058   0.007   0.000
  0.021  -0.054  -0.004   0.021   0.007   0.049  -0.003  -0.026   0.049   0.045   0.108  -0.044   0.008   0.007   0.058   0.000
 -0.019  -0.019   0.011   0.002   0.019  -0.003  -0.003   0.001   0.001   0.003  -0.009   0.003  -0.003   0.000   0.000   0.001
  0.002  -0.019  -0.022  -0.019   0.000   0.001  -0.003  -0.003  -0.003   0.000  -0.009   0.003   0.000  -0.003   0.000   0.000
 -0.019   0.002   0.011  -0.019  -0.019  -0.003   0.001   0.001  -0.003  -0.003  -0.009   0.003   0.000   0.000  -0.003   0.000


------------------------ aborting loop because EDIFF is reached ----------------------------------------


    CHARGE:  cpu time    0.4479: real time    0.4513
    FORLOC:  cpu time    0.1590: real time    0.1583
    FORNL :  cpu time    1.8807: real time    1.8845
    FORCOR:  cpu time    1.2238: real time    1.2258
    FORHAR:  cpu time    0.4259: real time    0.4258
    MIXING:  cpu time    0.0360: real time    0.0358
    OFIELD:  cpu time    0.0000: real time    0.0001

 VOLUME and BASIS-vectors are now :
 -----------------------------------------------------------------------------
  energy-cutoff  :      274.00
  volume of cell :     4096.00
      direct lattice vectors                 reciprocal lattice vectors
    16.000000000  0.000000000  0.000000000     0.062500000  0.000000000  0.000000000
     0.000000000 16.000000000  0.000000000     0.000000000  0.062500000  0.000000000
     0.000000000  0.000000000 16.000000000     0.000000000  0.000000000  0.062500000

  length of vectors
    16.000000000 16.000000000 16.000000000     0.062500000  0.062500000  0.062500000


 FORCES acting on ions
    electron-ion (+dipol)            ewald-force                    non-local-force                 convergence-correction
 -----------------------------------------------------------------------------------------------
   0.738E+03 0.739E+03 0.738E+03   -.736E+03 -.736E+03 -.736E+03   -.282E+01 -.282E+01 -.282E+01   0.350E-02 0.277E-01 -.129E-01
   0.269E+03 0.269E+03 0.113E+04   -.269E+03 -.269E+03 -.113E+04   0.186E-01 0.173E-01 0.113E+01   0.708E-02 0.533E-01 0.369E-03
   0.269E+03 0.113E+04 0.269E+03   -.269E+03 -.113E+04 -.269E+03   0.146E-01 0.113E+01 0.139E-01   0.249E-01 0.132E-01 -.641E-02
   0.113E+04 0.269E+03 0.269E+03   -.113E+04 -.269E+03 -.269E+03   0.113E+01 0.151E-01 0.155E-01   0.532E-02 0.598E-01 -.172E-01
   -.266E+03 0.921E+03 0.920E+03   0.265E+03 -.919E+03 -.918E+03   0.885E+00 -.205E+01 -.204E+01   0.182E-01 0.255E-01 -.312E-03
   -.920E+03 0.266E+03 0.921E+03   0.918E+03 -.265E+03 -.919E+03   0.204E+01 -.889E+00 -.204E+01   -.187E-01 -.490E-02 0.627E-02
   -.920E+03 0.920E+03 0.266E+03   0.918E+03 -.918E+03 -.265E+03   0.205E+01 -.205E+01 -.894E+00   -.814E-02 0.209E-01 -.876E-02
   -.329E+03 0.328E+03 0.328E+03   0.329E+03 -.328E+03 -.328E+03   0.175E+00 -.172E+00 -.178E+00   -.264E-02 0.204E-01 -.165E-01
   0.920E+03 -.266E+03 0.920E+03   -.918E+03 0.265E+03 -.918E+03   -.205E+01 0.887E+00 -.205E+01   0.294E-01 0.368E-01 0.192E-01
   0.266E+03 -.920E+03 0.921E+03   -.265E+03 0.918E+03 -.919E+03   -.887E+00 0.204E+01 -.204E+01   -.253E-01 -.211E-01 0.207E-01
   0.329E+03 -.329E+03 0.328E+03   -.328E+03 0.329E+03 -.328E+03   -.175E+00 0.178E+00 -.177E+00   -.144E-01 0.310E-01 -.355E-01
   0.920E+03 -.920E+03 0.266E+03   -.918E+03 0.918E+03 -.265E+03   -.205E+01 0.205E+01 -.893E+00   0.283E-01 -.178E-01 -.306E-01
   -.269E+03 -.269E+03 0.113E+04   0.269E+03 0.269E+03 -.113E+04   -.182E-01 -.170E-01 0.113E+01   -.414E-01 0.398E-02 0.180E-02
   -.739E+03 -.738E+03 0.738E+03   0.736E+03 0.736E+03 -.735E+03   0.281E+01 0.281E+01 -.281E+01   -.252E-01 -.190E-02 0.117E-02
   -.113E+04 -.269E+03 0.269E+03   0.113E+04 0.269E+03 -.269E+03   -.113E+01 -.123E-01 0.138E-01   -.888E-02 -.120E-01 0.638E-02
   -.269E+03 -.113E+04 0.269E+03   0.269E+03 0.113E+04 -.269E+03   -.140E-01 -.113E+01 0.152E-01   -.445E-01 -.270E-02 -.666E-02
   0.920E+03 0.920E+03 -.266E+03   -.918E+03 -.918E+03 0.265E+03   -.205E+01 -.205E+01 0.887E+00   -.169E-02 0.140E-01 0.256E-02
   0.329E+03 0.328E+03 -.329E+03   -.328E+03 -.328E+03 0.329E+03   -.179E+00 -.173E+00 0.170E+00   0.137E-01 0.286E-01 -.273E-01
   0.266E+03 0.920E+03 -.920E+03   -.265E+03 -.918E+03 0.918E+03   -.891E+00 -.205E+01 0.205E+01   0.355E-02 0.552E-02 -.823E-02
   0.920E+03 0.266E+03 -.920E+03   -.918E+03 -.265E+03 0.918E+03   -.205E+01 -.890E+00 0.205E+01   -.268E-02 0.217E-02 -.154E-01
   -.269E+03 0.113E+04 -.269E+03   0.269E+03 -.113E+04 0.269E+03   -.231E-01 0.112E+01 -.223E-01   0.169E-01 0.803E-02 -.156E-01
   -.113E+04 0.269E+03 -.269E+03   0.113E+04 -.269E+03 0.269E+03   -.112E+01 0.217E-01 -.204E-01   -.197E-02 0.793E-02 -.136E-01
   -.738E+03 0.738E+03 -.739E+03   0.736E+03 -.735E+03 0.736E+03   0.282E+01 -.282E+01 0.282E+01   0.519E-02 0.119E-01 -.140E-01
   -.269E+03 0.269E+03 -.113E+04   0.269E+03 -.269E+03 0.113E+04   -.182E-01 0.197E-01 -.112E+01   0.128E-01 0.134E-01 -.937E-02
   0.113E+04 -.269E+03 -.269E+03   -.113E+04 0.269E+03 0.269E+03   0.113E+01 -.195E-01 -.197E-01   0.299E-02 0.235E-01 -.537E-01
   0.269E+03 -.113E+04 -.269E+03   -.269E+03 0.113E+04 0.269E+03   0.188E-01 -.112E+01 -.172E-01   -.110E-02 0.514E-03 -.507E-01
   0.269E+03 -.269E+03 -.113E+04   -.269E+03 0.269E+03 0.113E+04   0.139E-01 -.122E-01 -.113E+01   0.168E-01 0.875E-02 -.101E-01
   0.738E+03 -.738E+03 -.739E+03   -.735E+03 0.736E+03 0.736E+03   -.282E+01 0.282E+01 0.282E+01   0.233E-02 0.127E-01 -.293E-01
   -.329E+03 -.329E+03 -.328E+03   0.328E+03 0.328E+03 0.328E+03   0.172E+00 0.177E+00 0.166E+00   -.215E-02 0.120E-01 -.188E-01
   -.921E+03 -.920E+03 -.266E+03   0.919E+03 0.918E+03 0.265E+03   0.204E+01 0.204E+01 0.888E+00   -.144E-01 -.244E-02 0.213E-02
   -.920E+03 -.266E+03 -.920E+03   0.918E+03 0.265E+03 0.918E+03   0.205E+01 0.891E+00 0.205E+01   -.419E-02 0.718E-02 -.197E-01
   -.266E+03 -.920E+03 -.921E+03   0.265E+03 0.918E+03 0.919E+03   0.890E+00 0.204E+01 0.205E+01   0.104E-01 0.394E-02 -.244E-01
 -----------------------------------------------------------------------------------------------
   0.360E-01 -.383E+00 0.409E+00   -.341E-12 -.227E-12 0.171E-11   -.154E-01 -.829E-04 -.188E-01   -.160E-01 0.390E+00 -.385E+00
 
 
 POSITION                                       TOTAL-FORCE (eV/Angst)
 -----------------------------------------------------------------------------------
      5.22060      5.22027      5.22058         0.000385      0.000873      0.000209
      7.05277      7.05284      4.94957         0.000658      0.000553      0.000460
      7.05284      4.95105      7.05298         0.000639     -0.002142      0.000090
      4.95034      7.05281      7.05275        -0.000489      0.000949      0.000687
      8.86271      5.16213      5.16258        -0.001007      0.000636     -0.000569
     10.82407      7.12422      5.16190        -0.000816      0.000912      0.000193
     10.82439      5.16140      7.12389        -0.001008      0.001121      0.000260
      8.94071      7.04705      7.04702        -0.002369      0.003871      0.001270
      5.16211      8.86267      5.16174         0.001951     -0.001001      0.002167
      7.12416     10.82389      5.16191         0.001638     -0.002012      0.001827
      7.04648      8.94111      7.04683         0.003757     -0.001966      0.002533
      5.16160     10.82451      7.12400         0.002205     -0.002331      0.000997
      8.93468      8.93468      4.94865        -0.000493      0.000409      0.000852
     10.76675     10.76647      5.22071        -0.002290     -0.001574      0.002431
     11.03755      8.93416      7.05248         0.000861      0.000030     -0.000038
      8.93421     11.03837      7.05249        -0.000675     -0.000942     -0.000432
      5.16242      5.16177      8.86276        -0.001275      0.000132     -0.000890
      7.04690      7.04710      8.94018         0.001257      0.003114     -0.002489
      7.12398      5.16188     10.82440         0.000193      0.000232     -0.000941
      5.16239      7.12420     10.82464        -0.000856      0.000686     -0.001193
      8.93522      4.94847      8.93500        -0.001484     -0.000787     -0.001270
     11.03892      7.05184      8.93447        -0.000116      0.001590     -0.001612
     10.76685      5.22040     10.76737         0.001651     -0.000799      0.001113
      8.93466      7.05199     11.03765        -0.001981      0.001444      0.001785
      4.94832      8.93527      8.93486         0.000385     -0.001165     -0.000861
      7.05189     11.03912      8.93456         0.000902     -0.001392     -0.001200
      7.05219      8.93460     11.03617         0.000618     -0.001168      0.002966
      5.22046     10.76669     10.76766         0.000441      0.000224     -0.001115
      8.94026      8.94036      8.93984        -0.002145     -0.000820     -0.003596
     10.82434     10.82397      8.86283         0.000197      0.000788     -0.001754
     10.82438      8.86280     10.82468         0.000113     -0.000741     -0.000912
      8.86286     10.82389     10.82487        -0.000846      0.001275     -0.000967
 -----------------------------------------------------------------------------------
    total drift:                                0.004627      0.006822      0.005255


--------------------------------------------------------------------------------------------------------



  FREE ENERGIE OF THE ION-ELECTRON SYSTEM (eV)
  ---------------------------------------------------
  free  energy   TOTEN  =      -150.54483575 eV

  energy  without entropy=     -149.93314907  energy(sigma->0) =     -150.34094019
 
 d Force = 0.4034626E-04[ 0.309E-05, 0.776E-04]  d Energy = 0.7338490E-04-0.330E-04
 d Force =-0.5800043E+01[-0.580E+01,-0.580E+01]  d Ewald  =-0.5800043E+01-0.226E-07


--------------------------------------------------------------------------------------------------------


    POTLOK:  cpu time    1.1848: real time    1.1880


--------------------------------------------------------------------------------------------------------


 stress matrix after NEB project (eV)
      0.00000      0.00000      0.00000
      0.00000      0.00000      0.00000
      0.00000      0.00000      0.00000
  FORCES: max atom, RMS     0.004940    0.002504
  FORCE total and by dimension    0.014163    0.003871
  Stress total and by dimension    0.000000    0.000000
 Conjugate gradient step on ions:
 trial-energy change:   -0.000073  1 .order   -0.000040   -0.000078   -0.000003
  (g-gl).g = 0.177E-04      g.g   = 0.226E-04  gl.gl    = 0.100E-03
 g(Force)  = 0.226E-04   g(Stress)= 0.000E+00 ortho     =-0.202E-05
 gamma     =   0.17632
 trial     =   3.49293
 opt step  =   3.63785  (harmonic =   3.63785) maximal distance =0.00041603
 next E    =  -150.544803   (d E  =  -0.00004)


--------------------------------------------------------------------------------------------------------


  
 reached required accuracy - stopping structural energy minimisation
     LOOP+:  cpu time   34.8817: real time   34.9799
    4ORBIT:  cpu time    0.0000: real time    0.0000

 total amount of memory used by VASP on root node    75355. kBytes
========================================================================

   base      :      30000. kBytes
   nonlr-proj:       2621. kBytes
   fftplans  :      13800. kBytes
   grid      :      20643. kBytes
   one-center:         62. kBytes
   wavefun   :       8229. kBytes
 
  
  
 General timing and accounting informations for this job:
 ========================================================
  
                  Total CPU time used (sec):      744.054
                            User time (sec):      733.615
                          System time (sec):       10.438
                         Elapsed time (sec):      745.865
  
                   Maximum memory used (kb):      102784.
                   Average memory used (kb):           0.
  
                          Minor page faults:       701453
                          Major page faults:           36
                 Voluntary context switches:         2411
