Pt cube particle                        
           1
    16.000000    0.000000    0.000000
     0.000000   16.000000    0.000000
     0.000000    0.000000   16.000000
   Pt
  32
Direct configuration=     1
   0.32634944  0.32632665  0.32635201
   0.44081179  0.44079117  0.30960247
   0.44082805  0.30964909  0.44082912
   0.30960700  0.44079803  0.44081808
   0.55363960  0.32260998  0.32265923
   0.67655202  0.44551338  0.32263343
   0.67651091  0.32262727  0.44557009
   0.55878959  0.44041000  0.44040974
   0.32259862  0.55363649  0.32260014
   0.44552024  0.67656880  0.32258645
   0.44042481  0.55876923  0.44041772
   0.32257868  0.67657725  0.44552240
   0.55840381  0.55838453  0.30949282
   0.67289981  0.67288608  0.32632560
   0.68962581  0.55836369  0.44080930
   0.55839086  0.68965074  0.44080139
   0.32264920  0.32260229  0.55361577
   0.44041039  0.44040104  0.55878632
   0.44559456  0.32261672  0.67652232
   0.32261221  0.44553949  0.67657364
   0.55840450  0.30961658  0.55840312
   0.68955573  0.44077205  0.55839774
   0.67284339  0.32635833  0.67284510
   0.55839277  0.44077804  0.68954973
   0.30951350  0.55838813  0.55840707
   0.44078910  0.68963584  0.55840300
   0.44080393  0.55836856  0.68959840
   0.32632902  0.67287937  0.67289779
   0.55877076  0.55875520  0.55875865
   0.67658205  0.67655452  0.55366811
   0.67655005  0.55361268  0.67655284
   0.55366779  0.67655879  0.67659037
Direct configuration=     2
   0.32634509  0.32632173  0.32634755
   0.44081065  0.44079195  0.30958615
   0.44082541  0.30963589  0.44082510
   0.30959367  0.44079835  0.44081464
   0.55365780  0.32260920  0.32265747
   0.67655182  0.44549544  0.32262829
   0.67651998  0.32261514  0.44554247
   0.55878753  0.44041300  0.44040466
   0.32259953  0.55365640  0.32259871
   0.44550261  0.67656385  0.32258735
   0.44042105  0.55877402  0.44041244
   0.32257566  0.67657795  0.44550051
   0.55840423  0.55838967  0.30948109
   0.67290052  0.67288588  0.32632380
   0.68964071  0.55836989  0.44080525
   0.55839262  0.68966714  0.44079724
   0.32264599  0.32259879  0.55363718
   0.44040635  0.44040501  0.55878545
   0.44556753  0.32261033  0.67652984
   0.32261244  0.44552014  0.67657593
   0.55840423  0.30958799  0.55840351
   0.68958834  0.44077385  0.55839764
   0.67285768  0.32634281  0.67286193
   0.55838987  0.44078239  0.68957378
   0.30949597  0.55839088  0.55840678
   0.44078779  0.68966006  0.55840326
   0.44080491  0.55836895  0.68960728
   0.32631966  0.67288665  0.67290959
   0.55877325  0.55876342  0.55876156
   0.67657808  0.67655049  0.55368727
   0.67655116  0.55363912  0.67655640
   0.55368786  0.67655361  0.67658987
Direct configuration=     3
   0.32633206  0.32630698  0.32633415
   0.44080721  0.44079428  0.30953721
   0.44081748  0.30959629  0.44081306
   0.30955366  0.44079931  0.44080431
   0.55371240  0.32260685  0.32265220
   0.67655123  0.44544164  0.32261290
   0.67654720  0.32257876  0.44545961
   0.55878133  0.44042199  0.44038941
   0.32260227  0.55371615  0.32259441
   0.44544972  0.67654900  0.32259003
   0.44040977  0.55878840  0.44039658
   0.32256661  0.67658004  0.44543484
   0.55840552  0.55840508  0.30944589
   0.67290267  0.67288530  0.32631842
   0.68968541  0.55838851  0.44079311
   0.55839789  0.68971633  0.44078480
   0.32263636  0.32258827  0.55370140
   0.44039425  0.44041691  0.55878285
   0.44548643  0.32259117  0.67655237
   0.32261310  0.44546209  0.67658278
   0.55840339  0.30950220  0.55840469
   0.68968620  0.44077925  0.55839733
   0.67290056  0.32629623  0.67291240
   0.55838114  0.44079546  0.68964594
   0.30944340  0.55839914  0.55840591
   0.44078386  0.68973272  0.55840403
   0.44080783  0.55837013  0.68963392
   0.32629157  0.67290849  0.67294501
   0.55878074  0.55878809  0.55877027
   0.67656617  0.67653841  0.55374474
   0.67655449  0.55371845  0.67656705
   0.55374808  0.67653809  0.67658836
Direct configuration=     4
   0.32630600  0.32627747  0.32630735
   0.44080035  0.44079893  0.30943933
   0.44080163  0.30951709  0.44078897
   0.30947364  0.44080124  0.44078366
   0.55382160  0.32260215  0.32264167
   0.67655005  0.44533404  0.32258211
   0.67660164  0.32250601  0.44529389
   0.55876893  0.44043997  0.44035891
   0.32260774  0.55383564  0.32258580
   0.44534394  0.67651931  0.32259540
   0.44038721  0.55881715  0.44036485
   0.32254851  0.67658422  0.44530350
   0.55840809  0.55843590  0.30937549
   0.67290697  0.67288413  0.32630766
   0.68977479  0.55842573  0.44076882
   0.55840843  0.68981470  0.44075991
   0.32261711  0.32256724  0.55382983
   0.44037004  0.44044071  0.55877764
   0.44532424  0.32255285  0.67659745
   0.32261443  0.44534600  0.67659650
   0.55840172  0.30933062  0.55840706
   0.68988190  0.44079006  0.55839671
   0.67298632  0.32620307  0.67301335
   0.55836369  0.44082159  0.68979026
   0.30933826  0.55841566  0.55840416
   0.44077599  0.68987805  0.55840558
   0.44081367  0.55837248  0.68968721
   0.32623538  0.67295217  0.67301584
   0.55879572  0.55883741  0.55878770
   0.67654235  0.67651424  0.55385967
   0.67656115  0.55387710  0.67658837
   0.55386852  0.67650706  0.67658533
Direct configuration=     5
   0.32629427  0.32626847  0.32629569
   0.44079900  0.44079983  0.30939868
   0.44079966  0.30948591  0.44079611
   0.30944051  0.44079855  0.44078624
   0.55386153  0.32260917  0.32264462
   0.67653477  0.44530780  0.32259394
   0.67657830  0.32253148  0.44527086
   0.55878350  0.44044393  0.44039490
   0.32261161  0.55387013  0.32258815
   0.44531131  0.67651172  0.32260223
   0.44039467  0.55882425  0.44039260
   0.32256445  0.67656855  0.44528123
   0.55841510  0.55843172  0.30934311
   0.67291347  0.67289151  0.32630081
   0.68980039  0.55841161  0.44076963
   0.55840247  0.68984689  0.44076493
   0.32262624  0.32257816  0.55386770
   0.44039551  0.44044521  0.55876660
   0.44529232  0.32257054  0.67657794
   0.32262400  0.44531322  0.67658166
   0.55842405  0.30930709  0.55842121
   0.68990646  0.44076808  0.55839953
   0.67296506  0.32622734  0.67299607
   0.55838921  0.44078756  0.68981907
   0.30931060  0.55843642  0.55841701
   0.44075877  0.68990726  0.55840913
   0.44078623  0.55839528  0.68971452
   0.32625193  0.67293706  0.67300240
   0.55877984  0.55880898  0.55875663
   0.67653646  0.67650989  0.55388715
   0.67655463  0.55390044  0.67657957
   0.55389368  0.67650595  0.67658009
Direct configuration=     6
   0.32627915  0.32625688  0.32628068
   0.44079727  0.44080100  0.30934632
   0.44079713  0.30944576  0.44080529
   0.30939784  0.44079508  0.44078957
   0.55391296  0.32261821  0.32264843
   0.67651508  0.44527400  0.32260917
   0.67654824  0.32256429  0.44524120
   0.55880228  0.44044902  0.44044126
   0.32261660  0.55391454  0.32259117
   0.44526929  0.67650195  0.32261101
   0.44040427  0.55883340  0.44042833
   0.32258499  0.67654836  0.44525255
   0.55842413  0.55842633  0.30930140
   0.67292185  0.67290102  0.32629199
   0.68983336  0.55839341  0.44077068
   0.55839480  0.68988835  0.44077140
   0.32263800  0.32259222  0.55391648
   0.44042830  0.44045100  0.55875237
   0.44525122  0.32259332  0.67655281
   0.32263633  0.44527102  0.67656255
   0.55845279  0.30927679  0.55843944
   0.68993808  0.44073977  0.55840316
   0.67293769  0.32625860  0.67297380
   0.55842207  0.44074372  0.68985616
   0.30927496  0.55846317  0.55843356
   0.44073658  0.68994487  0.55841371
   0.44075090  0.55842464  0.68974969
   0.32627323  0.67291760  0.67298508
   0.55875940  0.55877236  0.55871660
   0.67652888  0.67650428  0.55392255
   0.67654623  0.55393051  0.67656823
   0.55392609  0.67650453  0.67657334
Direct configuration=     7
   0.32628208  0.32625912  0.32628359
   0.44079760  0.44080077  0.30935646
   0.44079762  0.30945354  0.44080352
   0.30940610  0.44079575  0.44078893
   0.55390300  0.32261646  0.32264769
   0.67651889  0.44528055  0.32260622
   0.67655406  0.32255794  0.44524695
   0.55879864  0.44044803  0.44043228
   0.32261563  0.55390594  0.32259058
   0.44527743  0.67650384  0.32260931
   0.44040241  0.55883163  0.44042141
   0.32258101  0.67655227  0.44525810
   0.55842238  0.55842738  0.30930948
   0.67292023  0.67289918  0.32629370
   0.68982697  0.55839693  0.44077048
   0.55839628  0.68988032  0.44077015
   0.32263572  0.32258950  0.55390703
   0.44042195  0.44044987  0.55875512
   0.44525918  0.32258891  0.67655768
   0.32263394  0.44527919  0.67656625
   0.55844723  0.30928266  0.55843591
   0.68993196  0.44074525  0.55840246
   0.67294299  0.32625255  0.67297812
   0.55841571  0.44075221  0.68984898
   0.30928187  0.55845799  0.55843035
   0.44074088  0.68993758  0.55841283
   0.44075774  0.55841896  0.68974288
   0.32626910  0.67292137  0.67298843
   0.55876336  0.55877945  0.55872435
   0.67653035  0.67650537  0.55391569
   0.67654786  0.55392468  0.67657043
   0.55391981  0.67650481  0.67657465
Direct configuration=     8
   0.32627960  0.32625722  0.32628112
   0.44079732  0.44080096  0.30934786
   0.44079720  0.30944694  0.44080502
   0.30939909  0.44079518  0.44078947
   0.55391145  0.32261795  0.32264832
   0.67651566  0.44527499  0.32260872
   0.67654913  0.32256333  0.44524207
   0.55880173  0.44044887  0.44043990
   0.32261645  0.55391324  0.32259108
   0.44527052  0.67650223  0.32261076
   0.44040399  0.55883313  0.44042728
   0.32258438  0.67654896  0.44525339
   0.55842386  0.55842649  0.30930263
   0.67292161  0.67290074  0.32629225
   0.68983239  0.55839394  0.44077065
   0.55839502  0.68988713  0.44077121
   0.32263766  0.32259181  0.55391504
   0.44042734  0.44045083  0.55875279
   0.44525243  0.32259265  0.67655355
   0.32263597  0.44527226  0.67656311
   0.55845195  0.30927768  0.55843890
   0.68993715  0.44074060  0.55840306
   0.67293850  0.32625768  0.67297446
   0.55842111  0.44074501  0.68985508
   0.30927601  0.55846239  0.55843307
   0.44073723  0.68994377  0.55841358
   0.44075194  0.55842378  0.68974866
   0.32627260  0.67291817  0.67298559
   0.55876000  0.55877343  0.55871778
   0.67652910  0.67650445  0.55392151
   0.67654648  0.55392962  0.67656857
   0.55392513  0.67650457  0.67657354
Direct configuration=     9
   0.32628039  0.32625782  0.32628191
   0.44079741  0.44080090  0.30935060
   0.44079733  0.30944904  0.44080454
   0.30940132  0.44079536  0.44078930
   0.55390875  0.32261747  0.32264812
   0.67651669  0.44527676  0.32260792
   0.67655070  0.32256161  0.44524363
   0.55880074  0.44044860  0.44043747
   0.32261619  0.55391091  0.32259092
   0.44527272  0.67650275  0.32261030
   0.44040349  0.55883265  0.44042541
   0.32258331  0.67655001  0.44525489
   0.55842339  0.55842677  0.30930481
   0.67292117  0.67290024  0.32629271
   0.68983066  0.55839489  0.44077060
   0.55839542  0.68988496  0.44077087
   0.32263704  0.32259107  0.55391249
   0.44042562  0.44045052  0.55875353
   0.44525458  0.32259146  0.67655486
   0.32263532  0.44527447  0.67656411
   0.55845045  0.30927927  0.55843795
   0.68993550  0.44074208  0.55840287
   0.67293993  0.32625605  0.67297562
   0.55841939  0.44074730  0.68985313
   0.30927788  0.55846099  0.55843221
   0.44073839  0.68994180  0.55841334
   0.44075379  0.55842224  0.68974682
   0.32627149  0.67291919  0.67298650
   0.55876107  0.55877535  0.55871987
   0.67652950  0.67650474  0.55391966
   0.67654692  0.55392805  0.67656916
   0.55392344  0.67650465  0.67657389
Direct configuration=    10
   0.32627975  0.32625733  0.32628127
   0.44079734  0.44080095  0.30934838
   0.44079723  0.30944734  0.44080493
   0.30939951  0.44079522  0.44078944
   0.55391094  0.32261786  0.32264828
   0.67651586  0.44527533  0.32260857
   0.67654942  0.32256300  0.44524237
   0.55880154  0.44044882  0.44043944
   0.32261640  0.55391280  0.32259105
   0.44527094  0.67650233  0.32261067
   0.44040389  0.55883304  0.44042693
   0.32258418  0.67654916  0.44525367
   0.55842378  0.55842654  0.30930304
   0.67292152  0.67290065  0.32629234
   0.68983206  0.55839412  0.44077064
   0.55839510  0.68988672  0.44077114
   0.32263754  0.32259167  0.55391456
   0.44042702  0.44045077  0.55875293
   0.44525284  0.32259242  0.67655380
   0.32263584  0.44527267  0.67656330
   0.55845167  0.30927798  0.55843872
   0.68993684  0.44074088  0.55840302
   0.67293877  0.32625737  0.67297468
   0.55842078  0.44074544  0.68985471
   0.30927636  0.55846212  0.55843291
   0.44073745  0.68994339  0.55841353
   0.44075229  0.55842349  0.68974831
   0.32627239  0.67291837  0.67298576
   0.55876020  0.55877379  0.55871817
   0.67652918  0.67650450  0.55392116
   0.67654656  0.55392933  0.67656868
   0.55392481  0.67650459  0.67657361
Direct configuration=    11
   0.32628745  0.32626678  0.32628599
   0.44079835  0.44080273  0.30934796
   0.44080227  0.30944077  0.44081128
   0.30939641  0.44080055  0.44079668
   0.55391926  0.32263334  0.32266112
   0.67650421  0.44526380  0.32261865
   0.67652423  0.32258777  0.44524289
   0.55879468  0.44044054  0.44043899
   0.32263192  0.55391708  0.32260876
   0.44525976  0.67649334  0.32261915
   0.44040492  0.55881928  0.44042677
   0.32259982  0.67653162  0.44525022
   0.55841765  0.55841779  0.30929062
   0.67292203  0.67290444  0.32629450
   0.68984703  0.55838499  0.44077971
   0.55838809  0.68989823  0.44078039
   0.32265154  0.32261079  0.55392263
   0.44043111  0.44044353  0.55876142
   0.44524890  0.32261739  0.67652491
   0.32264959  0.44526279  0.67653982
   0.55845124  0.30927915  0.55843770
   0.68993225  0.44074012  0.55840441
   0.67292815  0.32627498  0.67296077
   0.55841618  0.44074956  0.68985306
   0.30926973  0.55845407  0.55842849
   0.44074303  0.68994472  0.55841019
   0.44076202  0.55841260  0.68976081
   0.32627853  0.67291833  0.67297846
   0.55876632  0.55877244  0.55874012
   0.67652127  0.67649835  0.55392683
   0.67652360  0.55392475  0.67654251
   0.55392844  0.67649335  0.67655420
