   20   20   99    2
  0.1268453E+02  0.5588825E-09  0.5830077E-09  0.7785916E-09  0.5000000E-15
  1.000000000000000E-004
  CAR 
 unknown system                          
    168      8    120
 
  0.1250000E+00  0.1250000E+00  0.1250000E+00  0.1250000E+00
    1      -44.138790    -40.340463   1.000000   1.000000
    2      -44.138464    -40.340033   1.000000   1.000000
    3      -44.138371    -40.339892   1.000000   1.000000
    4      -44.138056    -40.339483   1.000000   1.000000
    5      -44.023105    -40.012802   1.000000   1.000000
    6      -44.022822    -40.012385   1.000000   1.000000
    7      -44.019603    -40.007269   1.000000   1.000000
    8      -44.019357    -40.006915   1.000000   1.000000
    9      -43.806685    -39.455183   1.000000   1.000000
   10      -43.806450    -39.454823   1.000000   1.000000
   11      -43.806051    -39.454298   1.000000   1.000000
   12      -43.805816    -39.453944   1.000000   1.000000
   13      -24.815257    -24.811135   1.000000   1.000000
   14      -24.760289    -24.756406   1.000000   1.000000
   15      -24.727765    -24.724085   1.000000   1.000000
   16      -24.685259    -24.681956   1.000000   1.000000
   17      -12.313180    -12.243058   1.000000   1.000000
   18      -12.181520    -12.119941   1.000000   1.000000
   19      -12.027540    -11.962797   1.000000   1.000000
   20      -11.849439    -11.809794   1.000000   1.000000
   21      -11.781199    -11.731956   1.000000   1.000000
   22      -11.561782    -11.486219   1.000000   1.000000
   23      -11.340972    -11.292417   1.000000   1.000000
   24      -11.306833    -11.252336   1.000000   1.000000
   25      -11.225831    -11.156491   1.000000   1.000000
   26      -11.162261    -11.091745   1.000000   1.000000
   27      -11.059760    -10.995959   1.000000   1.000000
   28      -10.967929    -10.888181   1.000000   1.000000
   29       -8.676520     -8.640944   1.000000   1.000000
   30       -8.615062     -8.591644   1.000000   1.000000
   31       -8.583847     -8.556375   1.000000   1.000000
   32       -8.478394     -8.450301   1.000000   1.000000
   33       -8.346688     -8.324102   1.000000   1.000000
   34       -8.242408     -8.222109   1.000000   1.000000
   35       -8.170752     -8.147718   1.000000   1.000000
   36       -8.092803     -8.051005   1.000000   1.000000
   37       -8.025344     -7.984591   1.000000   1.000000
   38       -7.707183     -7.686089   1.000000   1.000000
   39       -7.574151     -7.544617   1.000000   1.000000
   40       -7.470739     -7.446225   1.000000   1.000000
   41       -0.054758      0.477768   1.000000   1.000000
   42        0.026742      1.044871   1.000000   1.000000
   43        0.299773      1.134119   1.000000   1.000000
   44        0.393516      1.696206   1.000000   1.000000
   45        0.465613      1.793737   1.000000   1.000000
   46        0.504810      1.955537   1.000000   1.000000
   47        0.650535      2.093361   1.000000   1.000000
   48        0.780527      2.137256   1.000000   1.000000
   49        0.874460      2.247518   1.000000   1.000000
   50        1.079331      2.287277   1.000000   1.000000
   51        1.185884      2.412965   1.000000   1.000000
   52        1.189939      2.507302   1.000000   1.000000
   53        1.255327      2.544939   1.000000   1.000000
   54        1.349612      2.606558   1.000000   1.000000
   55        1.564367      2.625953   1.000000   1.000000
   56        1.578763      2.731784   1.000000   1.000000
   57        1.693128      2.883703   1.000000   1.000000
   58        1.824597      3.014207   1.000000   1.000000
   59        1.956953      3.172043   1.000000   1.000000
   60        2.008010      3.182627   1.000000   1.000000
   61        2.060741      3.321663   1.000000   1.000000
   62        2.181333      3.521048   1.000000   1.000000
   63        2.297689      3.652907   1.000000   1.000000
   64        2.474002      3.702724   1.000000   1.000000
   65        2.786986      3.804533   1.000000   1.000000
   66        3.142325      3.935728   1.000000   1.000000
   67        3.200232      4.035786   1.000000   1.000000
   68        3.247462      4.148722   1.000000   1.000000
   69        3.369109      4.183225   1.000000   1.000000
   70        3.508296      4.243458   1.000000   1.000000
   71        3.651866      4.280849   1.000000   1.000000
   72        3.730930      4.333544   1.000000   1.000000
   73        3.800277      4.534659   1.000000   1.000000
   74        3.892405      4.593567   1.000000   1.000000
   75        3.943211      4.738271   1.000000   1.000000
   76        4.159474      4.825213   1.000000   1.000000
   77        4.205812      8.601804   1.000000   0.000000
   78        4.281569      8.720223   1.000000   0.000000
   79        4.288889      8.843605   1.000000   0.000000
   80        4.338173      9.049666   1.000000   0.000000
   81        4.345156      9.152007   1.000000   0.000000
   82        4.510533      9.245689   1.000000   0.000000
   83        4.567060      9.355642   1.000000   0.000000
   84        4.605460      9.442631   1.000000   0.000000
   85        4.747626      9.457408   1.000000   0.000000
   86        4.765914      9.543524   1.000000   0.000000
   87        4.791560      9.576360   1.000000   0.000000
   88        4.915667      9.596320   1.000000   0.000000
   89        5.033147      9.717806   1.000000   0.000000
   90        5.065297      9.774980   1.000000   0.000000
   91        5.405225      9.780112   1.000000   0.000000
   92        6.226937      9.825049   1.000000   0.000000
   93        6.341414      9.860727   0.000000   0.000000
   94        7.755817      9.891552   0.000000   0.000000
   95        8.143710      9.902724   0.000000   0.000000
   96        8.301758      9.926135   0.000000   0.000000
   97        9.710229      9.936822   0.000000   0.000000
   98        9.773450      9.966874   0.000000   0.000000
   99        9.812460      9.985519   0.000000   0.000000
  100        9.827011     10.002447   0.000000   0.000000
  101        9.838451     10.023254   0.000000   0.000000
  102        9.860896     10.032428   0.000000   0.000000
  103        9.886386     10.045594   0.000000   0.000000
  104        9.901974     10.064610   0.000000   0.000000
  105        9.915175     10.086020   0.000000   0.000000
  106        9.948011     10.094478   0.000000   0.000000
  107        9.961128     10.107124   0.000000   0.000000
  108        9.981307     10.151267   0.000000   0.000000
  109        9.992946     10.157474   0.000000   0.000000
  110       10.008178     10.183236   0.000000   0.000000
  111       10.039058     10.217943   0.000000   0.000000
  112       10.052641     10.236113   0.000000   0.000000
  113       10.081765     10.243709   0.000000   0.000000
  114       10.100993     10.263063   0.000000   0.000000
  115       10.111741     10.294062   0.000000   0.000000
  116       10.129324     10.298315   0.000000   0.000000
  117       10.152073     10.363984   0.000000   0.000000
  118       10.189135     10.660194   0.000000   0.000000
  119       10.207226     10.713382   0.000000   0.000000
  120       10.234728     11.041647   0.000000   0.000000
 
  0.3750000E+00  0.1250000E+00  0.1250000E+00  0.1250000E+00
    1      -44.138672    -40.340300   1.000000   1.000000
    2      -44.138501    -40.340071   1.000000   1.000000
    3      -44.138357    -40.339890   1.000000   1.000000
    4      -44.138181    -40.339652   1.000000   1.000000
    5      -44.023023    -40.012679   1.000000   1.000000
    6      -44.022908    -40.012507   1.000000   1.000000
    7      -44.019530    -40.007163   1.000000   1.000000
    8      -44.019428    -40.007018   1.000000   1.000000
    9      -43.806501    -39.454930   1.000000   1.000000
   10      -43.806266    -39.454570   1.000000   1.000000
   11      -43.806237    -39.454558   1.000000   1.000000
   12      -43.806008    -39.454210   1.000000   1.000000
   13      -24.789074    -24.785084   1.000000   1.000000
   14      -24.756014    -24.752150   1.000000   1.000000
   15      -24.733637    -24.729941   1.000000   1.000000
   16      -24.705731    -24.702226   1.000000   1.000000
   17      -12.390797    -12.324788   1.000000   1.000000
   18      -12.305993    -12.239363   1.000000   1.000000
   19      -12.076970    -12.014963   1.000000   1.000000
   20      -11.871631    -11.839204   1.000000   1.000000
   21      -11.694467    -11.666167   1.000000   1.000000
   22      -11.661006    -11.610030   1.000000   1.000000
   23      -11.415140    -11.357353   1.000000   1.000000
   24      -11.292286    -11.213378   1.000000   1.000000
   25      -11.176784    -11.111795   1.000000   1.000000
   26      -11.114341    -11.030831   1.000000   1.000000
   27      -11.087345    -11.003425   1.000000   1.000000
   28      -11.014971    -10.929253   1.000000   1.000000
   29       -8.606003     -8.579972   1.000000   1.000000
   30       -8.553691     -8.527606   1.000000   1.000000
   31       -8.524425     -8.499247   1.000000   1.000000
   32       -8.480145     -8.455427   1.000000   1.000000
   33       -8.314980     -8.283866   1.000000   1.000000
   34       -8.197561     -8.167026   1.000000   1.000000
   35       -7.940527     -7.924295   1.000000   1.000000
   36       -7.921007     -7.901075   1.000000   1.000000
   37       -7.887674     -7.869491   1.000000   1.000000
   38       -7.695022     -7.669803   1.000000   1.000000
   39       -7.636413     -7.603030   1.000000   1.000000
   40       -7.500578     -7.465864   1.000000   1.000000
   41       -0.048450      0.625886   1.000000   1.000000
   42       -0.002407      0.862508   1.000000   1.000000
   43        0.309090      1.147522   1.000000   1.000000
   44        0.380738      1.406141   1.000000   1.000000
   45        0.577850      1.872827   1.000000   1.000000
   46        0.672861      1.920312   1.000000   1.000000
   47        0.836497      2.019494   1.000000   1.000000
   48        0.984560      2.092707   1.000000   1.000000
   49        1.035549      2.142185   1.000000   1.000000
   50        1.049025      2.162052   1.000000   1.000000
   51        1.128138      2.300434   1.000000   1.000000
   52        1.151105      2.326147   1.000000   1.000000
   53        1.198159      2.420536   1.000000   1.000000
   54        1.250525      2.571109   1.000000   1.000000
   55        1.307413      2.698445   1.000000   1.000000
   56        1.406463      2.788623   1.000000   1.000000
   57        1.431913      2.819108   1.000000   1.000000
   58        1.503105      3.053518   1.000000   1.000000
   59        1.654392      3.088799   1.000000   1.000000
   60        1.748478      3.275630   1.000000   1.000000
   61        1.839371      3.382659   1.000000   1.000000
   62        2.178967      3.495068   1.000000   1.000000
   63        2.184825      3.523635   1.000000   1.000000
   64        2.295546      3.689831   1.000000   1.000000
   65        2.913920      3.751736   1.000000   1.000000
   66        2.951923      3.899029   1.000000   1.000000
   67        3.033653      3.916825   1.000000   1.000000
   68        3.260042      4.046390   1.000000   1.000000
   69        3.466966      4.125901   1.000000   1.000000
   70        3.508360      4.166300   1.000000   1.000000
   71        3.567789      4.236245   1.000000   1.000000
   72        3.686330      4.432597   1.000000   1.000000
   73        3.871424      4.482592   1.000000   1.000000
   74        3.904029      4.573034   1.000000   1.000000
   75        3.963216      4.647822   1.000000   1.000000
   76        4.070259      4.715618   1.000000   1.000000
   77        4.129139      8.759126   1.000000   0.000000
   78        4.191765      9.007866   1.000000   0.000000
   79        4.285583      9.044225   1.000000   0.000000
   80        4.349212      9.073555   1.000000   0.000000
   81        4.395496      9.233165   1.000000   0.000000
   82        4.506247      9.270953   1.000000   0.000000
   83        4.614369      9.323387   1.000000   0.000000
   84        4.639240      9.400801   1.000000   0.000000
   85        4.682422      9.427273   1.000000   0.000000
   86        4.780319      9.520335   1.000000   0.000000
   87        4.875331      9.535071   1.000000   0.000000
   88        4.904704      9.682048   1.000000   0.000000
   89        5.302299      9.744478   1.000000   0.000000
   90        5.487225      9.804863   1.000000   0.000000
   91        5.563873      9.817084   1.000000   0.000000
   92        6.135354      9.847472   1.000000   0.000000
   93        6.676728      9.889873   0.000000   0.000000
   94        7.270040      9.912457   0.000000   0.000000
   95        8.005931      9.931311   0.000000   0.000000
   96        8.182922      9.947981   0.000000   0.000000
   97        9.726821      9.969731   0.000000   0.000000
   98        9.755520      9.974401   0.000000   0.000000
   99        9.821998      9.999748   0.000000   0.000000
  100        9.839416     10.014738   0.000000   0.000000
  101        9.850455     10.026858   0.000000   0.000000
  102        9.870457     10.052564   0.000000   0.000000
  103        9.909818     10.063300   0.000000   0.000000
  104        9.918408     10.070111   0.000000   0.000000
  105        9.925503     10.094704   0.000000   0.000000
  106        9.941842     10.108929   0.000000   0.000000
  107        9.945663     10.120993   0.000000   0.000000
  108        9.959612     10.139663   0.000000   0.000000
  109        9.979258     10.159651   0.000000   0.000000
  110        9.985027     10.178934   0.000000   0.000000
  111       10.011584     10.201383   0.000000   0.000000
  112       10.027082     10.202867   0.000000   0.000000
  113       10.044483     10.235827   0.000000   0.000000
  114       10.049908     10.250517   0.000000   0.000000
  115       10.081010     10.284006   0.000000   0.000000
  116       10.113746     10.290634   0.000000   0.000000
  117       10.132004     10.319621   0.000000   0.000000
  118       10.161710     10.393951   0.000000   0.000000
  119       10.177703     10.638954   0.000000   0.000000
  120       10.202355     10.977297   0.000000   0.000000
 
  0.1250000E+00  0.3750000E+00  0.1250000E+00  0.1250000E+00
    1      -44.138666    -40.340294   1.000000   1.000000
    2      -44.138494    -40.340062   1.000000   1.000000
    3      -44.138346    -40.339873   1.000000   1.000000
    4      -44.138177    -40.339647   1.000000   1.000000
    5      -44.023026    -40.012679   1.000000   1.000000
    6      -44.022906    -40.012506   1.000000   1.000000
    7      -44.019530    -40.007166   1.000000   1.000000
    8      -44.019429    -40.007024   1.000000   1.000000
    9      -43.806504    -39.454937   1.000000   1.000000
   10      -43.806266    -39.454569   1.000000   1.000000
   11      -43.806240    -39.454568   1.000000   1.000000
   12      -43.806008    -39.454208   1.000000   1.000000
   13      -24.788980    -24.784985   1.000000   1.000000
   14      -24.752990    -24.749187   1.000000   1.000000
   15      -24.737992    -24.734247   1.000000   1.000000
   16      -24.707227    -24.703724   1.000000   1.000000
   17      -12.258644    -12.197733   1.000000   1.000000
   18      -12.187876    -12.125922   1.000000   1.000000
   19      -12.081607    -12.015522   1.000000   1.000000
   20      -11.793229    -11.748868   1.000000   1.000000
   21      -11.672357    -11.639523   1.000000   1.000000
   22      -11.605353    -11.555994   1.000000   1.000000
   23      -11.486766    -11.430042   1.000000   1.000000
   24      -11.373221    -11.292434   1.000000   1.000000
   25      -11.330215    -11.264481   1.000000   1.000000
   26      -11.164601    -11.087138   1.000000   1.000000
   27      -11.138808    -11.069214   1.000000   1.000000
   28      -11.020009    -10.933450   1.000000   1.000000
   29       -8.538525     -8.511639   1.000000   1.000000
   30       -8.486983     -8.455913   1.000000   1.000000
   31       -8.461845     -8.436482   1.000000   1.000000
   32       -8.310794     -8.285646   1.000000   1.000000
   33       -8.247213     -8.215883   1.000000   1.000000
   34       -8.176488     -8.145458   1.000000   1.000000
   35       -8.086582     -8.059501   1.000000   1.000000
   36       -8.033257     -8.017744   1.000000   1.000000
   37       -7.989017     -7.960254   1.000000   1.000000
   38       -7.773497     -7.745167   1.000000   1.000000
   39       -7.750530     -7.720370   1.000000   1.000000
   40       -7.586533     -7.559671   1.000000   1.000000
   41       -0.012827      0.773809   1.000000   1.000000
   42        0.042672      1.024922   1.000000   1.000000
   43        0.440740      1.253418   1.000000   1.000000
   44        0.547040      1.631687   1.000000   1.000000
   45        0.616239      1.846762   1.000000   1.000000
   46        0.652324      1.936952   1.000000   1.000000
   47        0.817174      2.043244   1.000000   1.000000
   48        0.942093      2.088595   1.000000   1.000000
   49        1.007633      2.189666   1.000000   1.000000
   50        1.065396      2.233744   1.000000   1.000000
   51        1.137345      2.270100   1.000000   1.000000
   52        1.152796      2.419693   1.000000   1.000000
   53        1.201642      2.495740   1.000000   1.000000
   54        1.265337      2.509910   1.000000   1.000000
   55        1.276187      2.623489   1.000000   1.000000
   56        1.361769      2.651572   1.000000   1.000000
   57        1.375666      2.992844   1.000000   1.000000
   58        1.486036      3.053316   1.000000   1.000000
   59        1.738016      3.164532   1.000000   1.000000
   60        1.843979      3.224176   1.000000   1.000000
   61        1.896933      3.329164   1.000000   1.000000
   62        2.147134      3.379491   1.000000   1.000000
   63        2.194889      3.507120   1.000000   1.000000
   64        2.293904      3.572110   1.000000   1.000000
   65        2.960762      3.690002   1.000000   1.000000
   66        3.133263      3.701148   1.000000   1.000000
   67        3.179265      3.898609   1.000000   1.000000
   68        3.361853      4.068298   1.000000   1.000000
   69        3.455675      4.076206   1.000000   1.000000
   70        3.609655      4.217406   1.000000   1.000000
   71        3.613001      4.316243   1.000000   1.000000
   72        3.673757      4.351846   1.000000   1.000000
   73        3.793588      4.368531   1.000000   1.000000
   74        3.857207      4.609383   1.000000   1.000000
   75        3.977609      4.616299   1.000000   1.000000
   76        4.056492      4.748439   1.000000   1.000000
   77        4.117926      8.769539   1.000000   0.000000
   78        4.234178      9.025689   1.000000   0.000000
   79        4.286595      9.073125   1.000000   0.000000
   80        4.309651      9.134940   1.000000   0.000000
   81        4.336249      9.216218   1.000000   0.000000
   82        4.436328      9.306301   1.000000   0.000000
   83        4.540316      9.412881   1.000000   0.000000
   84        4.579456      9.428340   1.000000   0.000000
   85        4.658539      9.537867   1.000000   0.000000
   86        4.770554      9.576050   1.000000   0.000000
   87        4.910448      9.600908   1.000000   0.000000
   88        4.950002      9.690623   1.000000   0.000000
   89        5.151474      9.778535   1.000000   0.000000
   90        5.379417      9.786633   1.000000   0.000000
   91        5.449819      9.800134   1.000000   0.000000
   92        6.026771      9.829833   1.000000   0.000000
   93        6.588846      9.860595   0.000000   0.000000
   94        7.168714      9.875965   0.000000   0.000000
   95        8.009046      9.902061   0.000000   0.000000
   96        8.161887      9.925825   0.000000   0.000000
   97        9.742499      9.962901   0.000000   0.000000
   98        9.783655      9.977241   0.000000   0.000000
   99        9.800979      9.983229   0.000000   0.000000
  100        9.821018     10.001870   0.000000   0.000000
  101        9.883748     10.014108   0.000000   0.000000
  102        9.917468     10.031590   0.000000   0.000000
  103        9.932582     10.035707   0.000000   0.000000
  104        9.942876     10.063857   0.000000   0.000000
  105        9.952911     10.069179   0.000000   0.000000
  106        9.964620     10.081815   0.000000   0.000000
  107        9.977593     10.128701   0.000000   0.000000
  108        9.983300     10.140499   0.000000   0.000000
  109        9.992681     10.158218   0.000000   0.000000
  110       10.007024     10.181071   0.000000   0.000000
  111       10.023142     10.187255   0.000000   0.000000
  112       10.042394     10.216536   0.000000   0.000000
  113       10.053688     10.226970   0.000000   0.000000
  114       10.065400     10.271629   0.000000   0.000000
  115       10.094725     10.300568   0.000000   0.000000
  116       10.104494     10.307886   0.000000   0.000000
  117       10.153881     10.333915   0.000000   0.000000
  118       10.173987     10.519556   0.000000   0.000000
  119       10.204008     10.690630   0.000000   0.000000
  120       10.236218     10.753214   0.000000   0.000000
 
  0.3750000E+00  0.3750000E+00  0.1250000E+00  0.1250000E+00
    1      -44.138627    -40.340237   1.000000   1.000000
    2      -44.138553    -40.340145   1.000000   1.000000
    3      -44.138305    -40.339820   1.000000   1.000000
    4      -44.138231    -40.339723   1.000000   1.000000
    5      -44.022988    -40.012624   1.000000   1.000000
    6      -44.022942    -40.012556   1.000000   1.000000
    7      -44.019503    -40.007128   1.000000   1.000000
    8      -44.019458    -40.007060   1.000000   1.000000
    9      -43.806424    -39.454828   1.000000   1.000000
   10      -43.806318    -39.454680   1.000000   1.000000
   11      -43.806189    -39.454464   1.000000   1.000000
   12      -43.806081    -39.454315   1.000000   1.000000
   13      -24.776744    -24.772796   1.000000   1.000000
   14      -24.761925    -24.758048   1.000000   1.000000
   15      -24.728016    -24.724311   1.000000   1.000000
   16      -24.715385    -24.711772   1.000000   1.000000
   17      -12.522958    -12.457490   1.000000   1.000000
   18      -12.485877    -12.419646   1.000000   1.000000
   19      -11.946085    -11.908863   1.000000   1.000000
   20      -11.919910    -11.883769   1.000000   1.000000
   21      -11.780876    -11.738872   1.000000   1.000000
   22      -11.606184    -11.558897   1.000000   1.000000
   23      -11.321909    -11.232215   1.000000   1.000000
   24      -11.208231    -11.152487   1.000000   1.000000
   25      -11.176282    -11.090353   1.000000   1.000000
   26      -11.105165    -11.028967   1.000000   1.000000
   27      -11.074087    -11.002073   1.000000   1.000000
   28      -11.025488    -10.930574   1.000000   1.000000
   29       -8.531372     -8.506194   1.000000   1.000000
   30       -8.503773     -8.483108   1.000000   1.000000
   31       -8.447100     -8.421960   1.000000   1.000000
   32       -8.408947     -8.386281   1.000000   1.000000
   33       -8.373198     -8.347665   1.000000   1.000000
   34       -8.284200     -8.261241   1.000000   1.000000
   35       -7.976047     -7.954623   1.000000   1.000000
   36       -7.854522     -7.835118   1.000000   1.000000
   37       -7.819412     -7.803883   1.000000   1.000000
   38       -7.790838     -7.773642   1.000000   1.000000
   39       -7.526979     -7.492178   1.000000   1.000000
   40       -7.450299     -7.416893   1.000000   1.000000
   41       -0.070797      0.784395   1.000000   1.000000
   42       -0.029075      0.882679   1.000000   1.000000
   43        0.141256      1.354258   1.000000   1.000000
   44        0.192959      1.473860   1.000000   1.000000
   45        0.433133      1.561096   1.000000   1.000000
   46        0.514018      1.693797   1.000000   1.000000
   47        0.576737      1.923166   1.000000   1.000000
   48        0.662791      1.976938   1.000000   1.000000
   49        1.041527      2.042437   1.000000   1.000000
   50        1.106266      2.121043   1.000000   1.000000
   51        1.135925      2.208255   1.000000   1.000000
   52        1.159704      2.293538   1.000000   1.000000
   53        1.289876      2.475823   1.000000   1.000000
   54        1.324060      2.630540   1.000000   1.000000
   55        1.387330      2.715234   1.000000   1.000000
   56        1.535880      2.752019   1.000000   1.000000
   57        1.595749      2.857160   1.000000   1.000000
   58        1.696481      3.020305   1.000000   1.000000
   59        1.789691      3.051425   1.000000   1.000000
   60        1.845439      3.193590   1.000000   1.000000
   61        2.185610      3.252697   1.000000   1.000000
   62        2.235191      3.388611   1.000000   1.000000
   63        2.272983      3.617839   1.000000   1.000000
   64        2.668303      3.649385   1.000000   1.000000
   65        2.705928      3.745455   1.000000   1.000000
   66        2.795455      3.809292   1.000000   1.000000
   67        3.133744      3.876444   1.000000   1.000000
   68        3.163857      3.959012   1.000000   1.000000
   69        3.356422      4.102236   1.000000   1.000000
   70        3.377726      4.213918   1.000000   1.000000
   71        3.618173      4.332537   1.000000   1.000000
   72        3.738992      4.377226   1.000000   1.000000
   73        3.881633      4.442768   1.000000   1.000000
   74        3.919708      4.551152   1.000000   1.000000
   75        3.983676      4.622980   1.000000   1.000000
   76        4.076749      4.659853   1.000000   1.000000
   77        4.137356      8.683391   1.000000   0.000000
   78        4.178219      8.801345   1.000000   0.000000
   79        4.202449      9.109107   1.000000   0.000000
   80        4.286495      9.171784   1.000000   0.000000
   81        4.377113      9.279428   1.000000   0.000000
   82        4.396443      9.342366   1.000000   0.000000
   83        4.484838      9.392599   1.000000   0.000000
   84        4.509201      9.474759   1.000000   0.000000
   85        4.599481      9.515273   1.000000   0.000000
   86        4.678862      9.615013   1.000000   0.000000
   87        4.761735      9.622212   1.000000   0.000000
   88        4.907393      9.665840   1.000000   0.000000
   89        5.171734      9.780990   1.000000   0.000000
   90        5.227413      9.811537   1.000000   0.000000
   91        5.433498      9.831643   1.000000   0.000000
   92        5.660004      9.834849   1.000000   0.000000
   93        6.865281      9.884273   0.000000   0.000000
   94        7.070099      9.901301   0.000000   0.000000
   95        8.191648      9.907872   0.000000   0.000000
   96        8.319875      9.916442   0.000000   0.000000
   97        9.781898      9.936169   0.000000   0.000000
   98        9.807948      9.961115   0.000000   0.000000
   99        9.821485      9.995857   0.000000   0.000000
  100        9.830723     10.006426   0.000000   0.000000
  101        9.865230     10.017536   0.000000   0.000000
  102        9.895789     10.029867   0.000000   0.000000
  103        9.913070     10.042539   0.000000   0.000000
  104        9.925899     10.061156   0.000000   0.000000
  105        9.945724     10.076777   0.000000   0.000000
  106        9.966985     10.095638   0.000000   0.000000
  107        9.975131     10.100507   0.000000   0.000000
  108        9.984145     10.125579   0.000000   0.000000
  109       10.000808     10.129235   0.000000   0.000000
  110       10.015342     10.144978   0.000000   0.000000
  111       10.026820     10.156134   0.000000   0.000000
  112       10.039867     10.167521   0.000000   0.000000
  113       10.049241     10.209316   0.000000   0.000000
  114       10.060056     10.234680   0.000000   0.000000
  115       10.069602     10.268704   0.000000   0.000000
  116       10.074863     10.308006   0.000000   0.000000
  117       10.142098     10.323944   0.000000   0.000000
  118       10.179466     10.372761   0.000000   0.000000
  119       10.199948     10.433176   0.000000   0.000000
  120       10.241334     10.773731   0.000000   0.000000
 
  0.1250000E+00  0.1250000E+00  0.3750000E+00  0.1250000E+00
    1      -44.138693    -40.340331   1.000000   1.000000
    2      -44.138552    -40.340154   1.000000   1.000000
    3      -44.138279    -40.339774   1.000000   1.000000
    4      -44.138143    -40.339600   1.000000   1.000000
    5      -44.022082    -40.011184   1.000000   1.000000
    6      -44.021806    -40.010782   1.000000   1.000000
    7      -44.020631    -40.008892   1.000000   1.000000
    8      -44.020370    -40.008518   1.000000   1.000000
    9      -43.806618    -39.455081   1.000000   1.000000
   10      -43.806519    -39.454930   1.000000   1.000000
   11      -43.805981    -39.454192   1.000000   1.000000
   12      -43.805882    -39.454045   1.000000   1.000000
   13      -24.799243    -24.795190   1.000000   1.000000
   14      -24.776443    -24.772486   1.000000   1.000000
   15      -24.715482    -24.711919   1.000000   1.000000
   16      -24.697848    -24.694427   1.000000   1.000000
   17      -12.185432    -12.119241   1.000000   1.000000
   18      -12.094811    -12.036282   1.000000   1.000000
   19      -12.044963    -11.983988   1.000000   1.000000
   20      -11.944935    -11.891462   1.000000   1.000000
   21      -11.745096    -11.695535   1.000000   1.000000
   22      -11.653728    -11.586967   1.000000   1.000000
   23      -11.433771    -11.384927   1.000000   1.000000
   24      -11.391437    -11.339033   1.000000   1.000000
   25      -11.143014    -11.084703   1.000000   1.000000
   26      -11.113675    -11.048125   1.000000   1.000000
   27      -11.080048    -10.998648   1.000000   1.000000
   28      -11.002794    -10.911799   1.000000   1.000000