Automatically generated mesh
       8
Reciprocal lattice
    0.12500000000000    0.12500000000000    0.12500000000000             8
    0.37500000000000    0.12500000000000    0.12500000000000             8
    0.12500000000000    0.37500000000000    0.12500000000000             8
    0.37500000000000    0.37500000000000    0.12500000000000             8
    0.12500000000000    0.12500000000000    0.37500000000000             8
    0.37500000000000    0.12500000000000    0.37500000000000             8
    0.12500000000000    0.37500000000000    0.37500000000000             8
    0.37500000000000    0.37500000000000    0.37500000000000             8
Tetrahedra
       140    0.00260416666667
         2         1         2         4         5
         2         1         3         4         5
         2         3         4         5         7
         2         2         4         5         6
         2         4         5         6         8
         2         4         5         7         8
         2         2         2         4         6
         2         2         4         4         6
         2         4         4         6         8
         2         2         4         6         6
         2         4         6         6         8
         2         4         6         8         8
         2         1         2         3         6
         2         2         3         4         6
         2         3         4         6         8
         2         1         3         5         6
         2         3         5         6         7
         2         3         6         7         8
         2         1         1         3         5
         2         1         3         3         5
         2         3         3         5         7
         2         1         3         5         5
         2         3         5         5         7
         2         3         5         7         7
         2         3         4         4         7
         2         3         3         4         7
         2         3         4         7         7
         2         4         4         7         8
         2         4         7         8         8
         2         4         7         7         8
         4         4         4         4         8
         4         4         4         8         8
         4         4         8         8         8
         2         3         3         4         8
         2         3         4         4         8
         2         3         4         8         8
         2         3         3         7         8
         2         3         7         7         8
         2         3         7         8         8
         4         3         3         3         7
         4         3         3         7         7
         4         3         7         7         7
         2         2         3         4         7
         2         1         2         3         7
         2         1         2         5         7
         2         2         4         7         8
         2         2         6         7         8
         2         2         5         6         7
         2         2         4         4         8
         2         2         2         4         8
         2         2         2         6         8
         2         2         4         8         8
         2         2         6         8         8
         2         2         6         6         8
         2         1         3         4         8
         2         1         2         4         8
         2         1         2         6         8
         2         1         3         7         8
         2         1         5         7         8
         2         1         5         6         8
         2         1         3         3         7
         2         1         1         3         7
         2         1         1         5         7
         2         1         3         7         7
         2         1         5         7         7
         2         1         5         5         7
         2         1         2         2         5
         2         1         1         2         5
         2         1         2         5         5
         2         2         2         5         6
         2         2         5         6         6
         2         2         5         5         6
         4         2         2         2         6
         4         2         2         6         6
         4         2         6         6         6
         2         1         1         2         6
         2         1         2         2         6
         2         1         2         6         6
         2         1         1         5         6
         2         1         5         5         6
         2         1         5         6         6
         4         1         1         1         5
         4         1         1         5         5
         4         1         5         5         5
         2         5         5         6         8
         2         5         5         7         8
         2         5         7         7         8
         2         5         6         6         8
         2         5         6         8         8
         2         5         7         8         8
         4         6         6         6         8
         4         6         6         8         8
         4         6         8         8         8
         2         5         6         6         7
         2         6         6         7         8
         2         6         7         8         8
         2         5         5         6         7
         2         5         6         7         7
         2         6         7         7         8
         4         5         5         5         7
         4         5         5         7         7
         4         5         7         7         7
         4         7         7         8         8
         4         7         7         7         8
         4         7         8         8         8
         6         8         8         8         8
         6         7         7         7         7
         4         5         5         6         6
         4         5         5         5         6
         4         5         6         6         6
         6         6         6         6         6
         6         5         5         5         5
         2         1         1         2         4
         2         1         1         3         4
         2         1         3         3         4
         2         1         2         2         4
         2         1         2         4         4
         2         1         3         4         4
         4         2         2         2         4
         4         2         2         4         4
         4         2         4         4         4
         2         1         2         2         3
         2         2         2         3         4
         2         2         3         4         4
         2         1         1         2         3
         2         1         2         3         3
         2         2         3         3         4
         4         1         1         1         3
         4         1         1         3         3
         4         1         3         3         3
         4         3         3         4         4
         4         3         3         3         4
         4         3         4         4         4
         6         4         4         4         4
         6         3         3         3         3
         4         1         1         2         2
         4         1         1         1         2
         4         1         2         2         2
         6         2         2         2         2
         6         1         1         1         1
