 vasp.5.4.1 24Jun15 (build Jan 06 2016 13:10:00) complex                        
  
 executed on           IFC91_ompi date 2016.03.01  14:26:57
 running on    8 total cores
 distrk:  each k-point on    8 cores,    1 groups
 distr:  one band on NCORES_PER_BAND=   1 cores,    8 groups


--------------------------------------------------------------------------------------------------------


 INCAR:
 POTCAR:     La: PAW 5s5p 6s5d4f valence          
 POTCAR:    PAW Mn                                
 POTCAR:    PAW O_s                               

 ----------------------------------------------------------------------------- 
|                                                                             |
|           W    W    AA    RRRRR   N    N  II  N    N   GGGG   !!!           |
|           W    W   A  A   R    R  NN   N  II  NN   N  G    G  !!!           |
|           W    W  A    A  R    R  N N  N  II  N N  N  G       !!!           |
|           W WW W  AAAAAA  RRRRR   N  N N  II  N  N N  G  GGG   !            |
|           WW  WW  A    A  R   R   N   NN  II  N   NN  G    G                |
|           W    W  A    A  R    R  N    N  II  N    N   GGGG   !!!           |
|                                                                             |
|      For optimal performance we recommend to set                            |
|        NCORE= 4 - approx SQRT( number of cores)                             |
|      NCORE specifies how many cores store one orbital (NPAR=cpu/NCORE).     |
|      This setting can  greatly improve the performance of VASP for DFT.     |
|      The default, NPAR=number of cores might be grossly inefficient         |
|      on modern multi-core architectures or massively parallel machines.     |
|      Do your own testing !!!!                                               |
|      Unfortunately you need to use the default for GW and RPA calculations. |
|      (for HF NCORE is supported but not extensively tested yet)             |
|                                                                             |
 ----------------------------------------------------------------------------- 

 POTCAR:     La: PAW 5s5p 6s5d4f valence          
   VRHFIN =La : [core=Kr4d]                                                     
   LEXCH  = 91                                                                  
   EATOM  =   866.4740 eV,   63.6840 Ry                                         
                                                                                
   TITEL  =  La: PAW 5s5p 6s5d4f valence                                        
   LULTRA =        F    use ultrasoft PP ?                                      
   IUNSCR =        1    unscreen: 0-lin 1-nonlin 2-no                           
   RPACOR =    2.300    partial core radius                                     
   POMASS =  138.900; ZVAL   =   11.000    mass and valenz                      
   RCORE  =    2.800    outmost cutoff radius                                   
   RWIGS  =    2.900; RWIGS  =    1.535    wigner-seitz radius (au A)           
   ENMAX  =  219.271; ENMIN  =  164.453 eV                                      
   RCLOC  =    1.601    cutoff for local pot                                    
   LCOR   =        T    correct aug charges                                     
   LPAW   =        T    paw PP                                                  
   EAUG   =  583.575                                                            
   DEXC   =     .000                                                            
   RMAX   =    3.114    core radius for proj-oper                               
   RAUG   =    1.300    factor for augmentation sphere                          
   RDEP   =    2.802    core radius for depl-charge                             
   QCUT   =   -4.014; QGAM   =    8.029    optimization parameters              
                                                                                
   Description                                                                  
     l     E      TYP  RCUT    TYP  RCUT                                        
     0   .000     23  2.800                                                     
     0   .000     23  2.800                                                     
     1   .000     23  2.500                                                     
     1  2.000     23  2.500                                                     
     2   .000     23  2.500                                                     
     2   .000     23  2.500                                                     
     3   .000     23  2.800                                                     
     3   .000     23  2.800                                                     
  local pseudopotential read in
  partial core-charges read in
  atomic valenz-charges read in
  non local Contribution for L=           0  read in
    real space projection operators read in
  non local Contribution for L=           0  read in
    real space projection operators read in
  non local Contribution for L=           1  read in
    real space projection operators read in
  non local Contribution for L=           1  read in
    real space projection operators read in
  non local Contribution for L=           2  read in
    real space projection operators read in
  non local Contribution for L=           2  read in
    real space projection operators read in
  non local Contribution for L=           3  read in
    real space projection operators read in
  non local Contribution for L=           3  read in
    real space projection operators read in
    PAW grid and wavefunctions read in
 
   number of l-projection  operators is LMAX  =           8
   number of lm-projection operators is LMMAX =          32
 
 POTCAR:    PAW Mn                                
   VRHFIN =Mn: 3p4s3d                                                           
   LEXCH  = 91                                                                  
   EATOM  =  2026.9401 eV,  148.9759 Ry                                         
                                                                                
   TITEL  = PAW Mn                                                              
   LULTRA =        F    use ultrasoft PP ?                                      
   IUNSCR =        1    unscreen: 0-lin 1-nonlin 2-no                           
   RPACOR =    2.080    partial core radius                                     
   POMASS =   54.938; ZVAL   =   13.000    mass and valenz                      
   RCORE  =    2.300    outmost cutoff radius                                   
   RWIGS  =    2.500; RWIGS  =    1.323    wigner-seitz radius (au A)           
   ENMAX  =  269.887; ENMIN  =  202.415 eV                                      
   RCLOC  =    1.725    cutoff for local pot                                    
   LCOR   =        T    correct aug charges                                     
   LPAW   =        T    paw PP                                                  
   EAUG   =  569.085                                                            
   DEXC   =     .000                                                            
   RMAX   =    2.807    core radius for proj-oper                               
   RAUG   =    1.300    factor for augmentation sphere                          
   RDEP   =    2.338    radius for radial grids                                 
   QCUT   =   -4.454; QGAM   =    8.908    optimization parameters              
                                                                                
   Description                                                                  
     l     E      TYP  RCUT    TYP  RCUT                                        
     1   .000     23  2.000                                                     
     1  -.100     23  2.000                                                     
     2   .000     23  2.300                                                     
     2   .000     23  2.300                                                     
     0   .000     23  2.300                                                     
     0   .000     23  2.300                                                     
     3   .000      7   .000                                                     
  local pseudopotential read in
  partial core-charges read in
  atomic valenz-charges read in
  non local Contribution for L=           1  read in
    real space projection operators read in
  non local Contribution for L=           1  read in
    real space projection operators read in
  non local Contribution for L=           2  read in
    real space projection operators read in
  non local Contribution for L=           2  read in
    real space projection operators read in
  non local Contribution for L=           0  read in
    real space projection operators read in
  non local Contribution for L=           0  read in
    real space projection operators read in
    PAW grid and wavefunctions read in
 
   number of l-projection  operators is LMAX  =           6
   number of lm-projection operators is LMMAX =          18
 
 POTCAR:    PAW O_s                               
   VRHFIN =O: s2p4                                                              
   LEXCH  = 91                                                                  
   EATOM  =   433.0277 eV,   31.8266 Ry                                         
                                                                                
   TITEL  = PAW O_s                                                             
   LULTRA =        F    use ultrasoft PP ?                                      
   IUNSCR =        0    unscreen: 0-lin 1-nonlin 2-no                           
   RPACOR =     .000    partial core radius                                     
   POMASS =   16.000; ZVAL   =    6.000    mass and valenz                      
   RCORE  =    1.900    outmost cutoff radius                                   
   RWIGS  =    1.700; RWIGS  =     .900    wigner-seitz radius (au A)           
   ENMAX  =  250.000; ENMIN  =  202.667 eV                                      
   RCLOC  =    1.014    cutoff for local pot                                    
   LCOR   =        T    correct aug charges                                     
   LPAW   =        T    paw PP                                                  
   EAUG   =  412.352                                                            
   DEXC   =     .000                                                            
   RMAX   =    2.805    core radius for proj-oper                               
   RDEP   =    2.002    core radius for depl-charge                             
   QCUT   =   -4.457; QGAM   =    8.913    optimization parameters              
                                                                                
   Description                                                                  
     l     E      TYP  RCUT    TYP  RCUT                                        
     0   .000     23  1.500                                                     
     0   .000     23  1.500                                                     
     1   .000     23  1.900                                                     
     1   .000     23  1.900                                                     
     2   .000      7   .000                                                     
  local pseudopotential read in
  atomic valenz-charges read in
  non local Contribution for L=           0  read in
    real space projection operators read in
  non local Contribution for L=           0  read in
    real space projection operators read in
  non local Contribution for L=           1  read in
    real space projection operators read in
  non local Contribution for L=           1  read in
    real space projection operators read in
    PAW grid and wavefunctions read in
 
   number of l-projection  operators is LMAX  =           4
   number of lm-projection operators is LMMAX =           8
 
 Optimization of the real space projectors (new method)

 maximal supplied QI-value         = 13.42
 optimisation between [QCUT,QGAM] = [ 11.67, 23.35] = [ 38.16,152.62] Ry 
 Optimized for a Real-space Cutoff    1.63 Angstroem

   l    n(q)    QCUT    max X(q) W(low)/X(q) W(high)/X(q)  e(spline) 
   0     11    11.673     5.064    0.50E-05    0.90E-06    0.19E-07
   0     11    11.673    14.997    0.39E-04    0.13E-04    0.18E-06
   1     11    11.673     3.056    0.28E-05    0.12E-05    0.46E-07
   1     11    11.673     5.332    0.88E-05    0.13E-04    0.19E-06
   2     10    11.673     4.127    0.13E-04    0.65E-05    0.92E-07
   2     10    11.673    34.589    0.61E-04    0.33E-04    0.17E-06
   3     10    11.673     6.445    0.16E-04    0.44E-04    0.11E-06
   3     10    11.673    18.717    0.17E-03    0.14E-03    0.38E-06
 Optimization of the real space projectors (new method)

 maximal supplied QI-value         = 16.25
 optimisation between [QCUT,QGAM] = [ 11.54, 23.24] = [ 37.28,151.24] Ry 
 Optimized for a Real-space Cutoff    1.53 Angstroem

   l    n(q)    QCUT    max X(q) W(low)/X(q) W(high)/X(q)  e(spline) 
   1     10    11.539     4.093    0.14E-05    0.94E-06    0.35E-07
   1     10    11.539     5.158    0.38E-04    0.24E-04    0.17E-06
   2     10    11.539     4.141    0.87E-05    0.14E-04    0.48E-07
   2     10    11.539    35.431    0.12E-03    0.13E-03    0.25E-06
   0     11    11.539    20.306    0.20E-04    0.18E-05    0.19E-07
   0     11    11.539    60.861    0.37E-04    0.19E-04    0.29E-06
 Optimization of the real space projectors (new method)

 maximal supplied QI-value         = 19.84
 optimisation between [QCUT,QGAM] = [ 11.51, 23.22] = [ 37.09,150.92] Ry 
 Optimized for a Real-space Cutoff    1.14 Angstroem

   l    n(q)    QCUT    max X(q) W(low)/X(q) W(high)/X(q)  e(spline) 
   0      8    11.508     3.485    0.14E-04    0.16E-04    0.20E-07
   0      8    11.508    30.133    0.22E-03    0.41E-03    0.10E-06
   1      7    11.508     3.755    0.16E-04    0.12E-03    0.35E-07
   1      7    11.508    24.805    0.22E-03    0.68E-03    0.91E-07
   La: PAW 5s5p 6s5d4f valence          :
 energy of atom  1       EATOM= -866.4740
 kinetic energy error for atom=    0.0009 (will be added to EATOM!!)
  PAW Mn                                :
 energy of atom  2       EATOM=-2026.9401
 kinetic energy error for atom=    0.0058 (will be added to EATOM!!)
  PAW O_s                               :
 energy of atom  3       EATOM= -433.0277
 kinetic energy error for atom=    0.0042 (will be added to EATOM!!)
 
 
 POSCAR: La4 Mn4 O12                             
  positions in direct lattice
  velocities in cartesian coordinates
 exchange correlation table for  LEXCH =        7
   RHO(1)=    0.500       N(1)  =     2000
   RHO(2)=  100.500       N(2)  =     4000

 VTST: version 3.1, (03/28/14)

 CHAIN: initializing optimizer
 
 OPT: Using VASP QUASI-newton optimizer
 CHAIN: Read ICHAIN            0
 
 POSCAR: La4 Mn4 O12                             
  positions in direct lattice
  velocities in cartesian coordinates
 


--------------------------------------------------------------------------------------------------------


 ion  position               nearest neighbor table
   1  0.011  0.554  0.250-  18 2.41  13 2.45  19 2.45  12 2.54  10 2.64  16 2.64  14 2.76  11 2.76
                             6 3.25   8 3.25   7 3.37   5 3.37
   2  0.511  0.946  0.750-  17 2.41   9 2.45  20 2.45  15 2.54  14 2.64  11 2.64  10 2.76  16 2.76
                             5 3.25   7 3.25   6 3.37   8 3.37
   3  0.489  0.054  0.250-  12 2.41  10 2.45  16 2.45  18 2.54  13 2.64  19 2.64   9 2.76  20 2.76
                             5 3.25   7 3.25   6 3.37   8 3.37
   4  0.989  0.446  0.750-  15 2.41  14 2.45  11 2.45  17 2.54   9 2.64  20 2.64  19 2.76  13 2.76
                             6 3.25   8 3.25   7 3.37   5 3.37
   5  0.500  0.500  0.500-  11 1.95  19 1.95  15 2.01  18 2.01  16 2.20   9 2.20   2 3.25   3 3.25
                             1 3.37   4 3.37
   6  0.000  0.000  0.500-   9 1.95  16 1.95  12 2.01  17 2.01  19 2.20  11 2.20   1 3.25   4 3.25
                             3 3.37   2 3.37
   7  0.500  0.500  0.000-  14 1.95  13 1.95  15 2.01  18 2.01  10 2.20  20 2.20   2 3.25   3 3.25
                             1 3.37   4 3.37
   8  0.000  0.000  0.000-  20 1.95  10 1.95  17 2.01  12 2.01  13 2.20  14 2.20   1 3.25   4 3.25
                             3 3.37   2 3.37
   9  0.722  0.193  0.545-   6 1.95   5 2.20   2 2.45   4 2.64   3 2.76
  10  0.278  0.807  0.045-   8 1.95   7 2.20   3 2.45   1 2.64   2 2.76
  11  0.778  0.693  0.545-   5 1.95   6 2.20   4 2.45   2 2.64   1 2.76
  12  0.913  0.980  0.250-   6 2.01   8 2.01   3 2.41   1 2.54
  13  0.222  0.307  0.045-   7 1.95   8 2.20   1 2.45   3 2.64   4 2.76
  14  0.778  0.693  0.955-   7 1.95   8 2.20   4 2.45   2 2.64   1 2.76
  15  0.413  0.520  0.750-   5 2.01   7 2.01   4 2.41   2 2.54
  16  0.278  0.807  0.455-   6 1.95   5 2.20   3 2.45   1 2.64   2 2.76
  17  0.087  0.020  0.750-   6 2.01   8 2.01   2 2.41   4 2.54
  18  0.587  0.480  0.250-   5 2.01   7 2.01   1 2.41   3 2.54
  19  0.222  0.307  0.455-   5 1.95   6 2.20   1 2.45   3 2.64   4 2.76
  20  0.722  0.193  0.955-   8 1.95   7 2.20   2 2.45   4 2.64   3 2.76
 
  LATTYP: Found a simple orthorhombic cell.
 ALAT       =     5.5888246681
 B/A-ratio  =     1.0431668478
 C/A-ratio  =     1.3931223213
  
  Lattice vectors:
  
 A1 = (   5.5888246681,   0.0000000000,   0.0000000000)
 A2 = (   0.0000000000,   5.8300766121,   0.0000000000)
 A3 = (   0.0000000000,   0.0000000000,   7.7859163948)


Analysis of symmetry for initial positions (statically):
=====================================================================
 Subroutine PRICEL returns:
 Original cell was already a primitive cell.
 

 Routine SETGRP: Setting up the symmetry group for a 
 simple orthorhombic supercell.


 Subroutine GETGRP returns: Found  8 space group operations
 (whereof  2 operations were pure point group operations)
 out of a pool of  8 trial point group operations.


The static configuration has the point symmetry S_2 .
 The point group associated with its full space group is D_2h.


Analysis of symmetry for dynamics (positions and initial velocities):
=====================================================================
 Subroutine PRICEL returns:
 Original cell was already a primitive cell.
 

 Routine SETGRP: Setting up the symmetry group for a 
 simple orthorhombic supercell.


 Subroutine GETGRP returns: Found  8 space group operations
 (whereof  2 operations were pure point group operations)
 out of a pool of  8 trial point group operations.


The dynamic configuration has the point symmetry S_2 .
 The point group associated with its full space group is D_2h.


Analysis of structural, dynamic, and magnetic symmetry:
=====================================================================
 Subroutine PRICEL returns:
 Original cell was already a primitive cell.
 

 Routine SETGRP: Setting up the symmetry group for a 
 simple orthorhombic supercell.


 Subroutine GETGRP returns: Found  8 space group operations
 (whereof  2 operations were pure point group operations)
 out of a pool of  8 trial point group operations.


The magnetic configuration has the point symmetry S_2 .
 The point group associated with its full space group is D_2h.


 Subroutine INISYM returns: Found  8 space group operations
 (whereof  2 operations are pure point group operations),
 and found     1 'primitive' translations

 
 
 KPOINTS: pymatgen generated KPOINTS with grid den

Automatic generation of k-mesh.
Space group operators:
 irot       det(A)        alpha          n_x          n_y          n_z        tau_x        tau_y        tau_z
    1     1.000000     0.000001     1.000000     0.000000     0.000000     0.000000     0.000000     0.000000
    2    -1.000000     0.000001     1.000000     0.000000     0.000000     0.000000     0.000000     0.000000
    3     1.000000   180.000000     0.000000     0.000000     1.000000     0.000000     0.000000     0.500000
    4    -1.000000   180.000000     0.000000     0.000000     1.000000     0.000000     0.000000     0.500000
    5     1.000000   180.000000     0.000000     1.000000     0.000000     0.500000     0.500000     0.500000
    6    -1.000000   180.000000     0.000000     1.000000     0.000000     0.500000     0.500000     0.500000
    7     1.000000   180.000000     1.000000     0.000000     0.000000     0.500000     0.500000     0.000000
    8    -1.000000   180.000000     1.000000     0.000000     0.000000     0.500000     0.500000     0.000000
 
 Subroutine IBZKPT returns following result:
 ===========================================
 
 Found      8 irreducible k-points:
 
 Following reciprocal coordinates:
            Coordinates               Weight
  0.125000  0.125000  0.125000      8.000000
  0.375000  0.125000  0.125000      8.000000
  0.125000  0.375000  0.125000      8.000000
  0.375000  0.375000  0.125000      8.000000
  0.125000  0.125000  0.375000      8.000000
  0.375000  0.125000  0.375000      8.000000
  0.125000  0.375000  0.375000      8.000000
  0.375000  0.375000  0.375000      8.000000
 
 Following cartesian coordinates:
            Coordinates               Weight
  0.022366  0.021441  0.016055      8.000000
  0.067098  0.021441  0.016055      8.000000
  0.022366  0.064322  0.016055      8.000000
  0.067098  0.064322  0.016055      8.000000
  0.022366  0.021441  0.048164      8.000000
  0.067098  0.021441  0.048164      8.000000
  0.022366  0.064322  0.048164      8.000000
  0.067098  0.064322  0.048164      8.000000
 
 TETIRR: Found    140 inequivalent tetrahedra from      384


--------------------------------------------------------------------------------------------------------




 Dimension of arrays:
   k-points           NKPTS =      8   k-points in BZ     NKDIM =      8   number of bands    NBANDS=    120
   number of dos      NEDOS =    301   number of ions     NIONS =     20
   non local maximal  LDIM  =      8   non local SUM 2l+1 LMDIM =     32
   total plane-waves  NPLWV = 120960
   max r-space proj   IRMAX =   8655   max aug-charges    IRDMAX=  25111
   dimension x,y,z NGX =    42 NGY =   48 NGZ =   60
   dimension x,y,z NGXF=    84 NGYF=   96 NGZF=  120
   support grid    NGXF=    84 NGYF=   96 NGZF=  120
   ions per type =               4   4  12
 NGX,Y,Z   is equivalent  to a cutoff of  12.49, 13.69, 12.81 a.u.
 NGXF,Y,Z  is equivalent  to a cutoff of  24.99, 27.37, 25.62 a.u.


 I would recommend the setting:
   dimension x,y,z NGX =    42 NGY =   43 NGZ =   58
 SYSTEM =  unknown system                          
 POSCAR =  La4 Mn4 O12                             

 Startparameter for this run:
   NWRITE =      2    write-flag & timer
   PREC   = accura    normal or accurate (medium, high low for compatibility)
   ISTART =      0    job   : 0-new  1-cont  2-samecut
   ICHARG =      1    charge: 1-file 2-atom 10-const
   ISPIN  =      2    spin polarized calculation?
   LNONCOLLINEAR =      F non collinear calculations
   LSORBIT =      F    spin-orbit coupling
   INIWAV =      1    electr: 0-lowe 1-rand  2-diag
   LASPH  =      F    aspherical Exc in radial PAW
   METAGGA=      F    non-selfconsistent MetaGGA calc.

 Electronic Relaxation 1
   ENCUT  =  520.0 eV  38.22 Ry    6.18 a.u.  10.39 10.84 14.48*2*pi/ulx,y,z
   ENINI  =  520.0     initial cutoff
   ENAUG  =  583.6 eV  augmentation charge cutoff
   NELM   =    100;   NELMIN=  2; NELMDL= -5     # of ELM steps 
   EDIFF  = 0.1E-02   stopping-criterion for ELM
   LREAL  =      T    real-space projection
   NLSPLINE    = F    spline interpolate recip. space projectors
   LCOMPAT=      F    compatible to vasp.4.4
   GGA_COMPAT  = T    GGA compatible to vasp.4.4-vasp.4.6
   LMAXPAW     = -100 max onsite density
   LMAXMIX     =    6 max onsite mixed and CHGCAR
   VOSKOWN=      0    Vosko Wilk Nusair interpolation
   ROPT   =   -0.00025  -0.00025  -0.00025
 Ionic relaxation
   EDIFFG = 0.1E-01   stopping-criterion for IOM
   NSW    =     99    number of steps for IOM
   NBLOCK =      1;   KBLOCK =     99    inner block; outer block 
   IBRION =      1    ionic relax: 0-MD 1-quasi-New 2-CG
   NFREE  =      0    steps in history (QN), initial steepest desc. (CG)
   ISIF   =      3    stress and relaxation
   IWAVPR =     11    prediction:  0-non 1-charg 2-wave 3-comb
   ISYM   =      2    0-nonsym 1-usesym 2-fastsym
   LCORR  =      T    Harris-Foulkes like correction to forces

   POTIM  = 0.5000    time-step for ionic-motion
   TEIN   =    0.0    initial temperature
   TEBEG  =    0.0;   TEEND  =   0.0 temperature during run
   SMASS  =  -3.00    Nose mass-parameter (am)
   estimated Nose-frequenzy (Omega)   =  0.10E-29 period in steps =****** mass=  -0.714E-27a.u.
   SCALEE = 1.0000    scale energy and forces
   NPACO  =    256;   APACO  = 16.0  distance and # of slots for P.C.
   PSTRESS=    0.0 pullay stress

  Mass of Ions in am
   POMASS = 138.90 54.94 16.00
  Ionic Valenz
   ZVAL   =  11.00 13.00  6.00
  Atomic Wigner-Seitz radii
   RWIGS  =  -1.00 -1.00 -1.00
  virtual crystal weights 
   VCA    =   1.00  1.00  1.00
   NELECT =     168.0000    total number of electrons
   NUPDOWN=      -1.0000    fix difference up-down

 DOS related values:
   EMIN   =  10.00;   EMAX   =-10.00  energy-range for DOS
   EFERMI =   0.00
   ISMEAR =    -5;   SIGMA  =   0.05  broadening in eV -4-tet -1-fermi 0-gaus

 Electronic relaxation 2 (details)
   IALGO  =     68    algorithm
   LDIAG  =      T    sub-space diagonalisation (order eigenvalues)
   LSUBROT=      F    optimize rotation matrix (better conditioning)
   TURBO    =      0    0=normal 1=particle mesh
   IRESTART =      0    0=no restart 2=restart with 2 vectors
   NREBOOT  =      0    no. of reboots
   NMIN     =      0    reboot dimension
   EREF     =   0.00    reference energy to select bands
   IMIX   =      4    mixing-type and parameters
     AMIX     =   0.40;   BMIX     =  1.00
     AMIX_MAG =   1.60;   BMIX_MAG =  1.00
     AMIN     =   0.10
     WC   =   100.;   INIMIX=   1;  MIXPRE=   1;  MAXMIX= -45

 Intra band minimization:
   WEIMIN = 0.0010     energy-eigenvalue tresh-hold
   EBREAK =  0.21E-05  absolut break condition
   DEPER  =   0.30     relativ break condition  

   TIME   =   0.40     timestep for ELM

  volume/ion in A,a.u.               =      12.68        85.60
  Fermi-wavevector in a.u.,A,eV,Ry     =   1.426953  2.696551 27.704125  2.036196
  Thomas-Fermi vector in A             =   2.547175
 
 Write flags
   LWAVE  =      F    write WAVECAR
   LCHARG =      T    write CHGCAR
   LVTOT  =      F    write LOCPOT, total local potential
   LVHAR  =      F    write LOCPOT, Hartree potential only
   LELF   =      F    write electronic localiz. function (ELF)
   LORBIT =     11    0 simple, 1 ext, 2 COOP (PROOUT)


 Dipole corrections
   LMONO  =      F    monopole corrections only (constant potential shift)
   LDIPOL =      F    correct potential (dipole corrections)
   IDIPOL =      0    1-x, 2-y, 3-z, 4-all directions 
   EPSILON=  1.0000000 bulk dielectric constant

 LDA+U is selected, type is set to LDAUTYPE =  2
   angular momentum for each species LDAUL =     0    2    0
   U (eV)           for each species LDAUU =   0.0  3.9  0.0
   J (eV)           for each species LDAUJ =   0.0  0.0  0.0
 Exchange correlation treatment:
   GGA     =    --    GGA type
   LEXCH   =     7    internal setting for exchange type
   VOSKOWN=      0    Vosko Wilk Nusair interpolation
   LHFCALC =     F    Hartree Fock is set to
   LHFONE  =     F    Hartree Fock one center treatment
   AEXX    =    0.0000 exact exchange contribution

 Linear response parameters
   LEPSILON=     F    determine dielectric tensor
   LRPA    =     F    only Hartree local field effects (RPA)
   LNABLA  =     F    use nabla operator in PAW spheres
   LVEL    =     F    velocity operator in full k-point grid
   LINTERFAST=   F  fast interpolation
   KINTER  =     0    interpolate to denser k-point grid
   CSHIFT  =0.1000    complex shift for real part using Kramers Kronig
   OMEGAMAX=  -1.0    maximum frequency
   DEG_THRESHOLD= 0.2000000E-02 threshold for treating states as degnerate
   RTIME   =    0.100 relaxation time in fs

 Orbital magnetization related:
   ORBITALMAG=     F  switch on orbital magnetization
   LCHIMAG   =     F  perturbation theory with respect to B field
   DQ        =  0.001000  dq finite difference perturbation B field



--------------------------------------------------------------------------------------------------------


 quasi-Newton-method for relaxation of ions
 charge density and potential will be updated during run
 spin polarized calculation
 RMM-DIIS sequential band-by-band and
  variant of blocked Davidson during initial phase
 perform sub-space diagonalisation
    before iterative eigenvector-optimisation
 modified Broyden-mixing scheme, WC =      100.0
 initial mixing is a Kerker type mixing with AMIX =  0.4000 and BMIX =      1.0000
 Hartree-type preconditioning will be used
 using additional bands           36
 real space projection scheme for non local part
 use partial core corrections
 calculate Harris-corrections to forces 
   (improved forces if not selfconsistent)
 use gradient corrections 
 use of overlap-Matrix (Vanderbilt PP)
 Fermi weights with tetrahedron method with Bloechl corrections


--------------------------------------------------------------------------------------------------------


  energy-cutoff  :      520.00
  volume of cell :      253.69
      direct lattice vectors                 reciprocal lattice vectors
     5.588824668  0.000000000  0.000000000     0.178928497  0.000000000  0.000000000
     0.000000000  5.830076612  0.000000000     0.000000000  0.171524333  0.000000000
     0.000000000  0.000000000  7.785916395     0.000000000  0.000000000  0.128437033

  length of vectors
     5.588824668  5.830076612  7.785916395     0.178928497  0.171524333  0.128437033


 
 k-points in units of 2pi/SCALE and weight: pymatgen generated KPOINTS with grid den
   0.02236606  0.02144054  0.01605463       0.125
   0.06709819  0.02144054  0.01605463       0.125
   0.02236606  0.06432162  0.01605463       0.125
   0.06709819  0.06432162  0.01605463       0.125
   0.02236606  0.02144054  0.04816389       0.125
   0.06709819  0.02144054  0.04816389       0.125
   0.02236606  0.06432162  0.04816389       0.125
   0.06709819  0.06432162  0.04816389       0.125
 
 k-points in reciprocal lattice and weights: pymatgen generated KPOINTS with grid den
   0.12500000  0.12500000  0.12500000       0.125
   0.37500000  0.12500000  0.12500000       0.125
   0.12500000  0.37500000  0.12500000       0.125
   0.37500000  0.37500000  0.12500000       0.125
   0.12500000  0.12500000  0.37500000       0.125
   0.37500000  0.12500000  0.37500000       0.125
   0.12500000  0.37500000  0.37500000       0.125
   0.37500000  0.37500000  0.37500000       0.125
 
 position of ions in fractional coordinates (direct lattice) 
   0.01091859  0.55433297  0.25000000
   0.51091859  0.94566703  0.75000000
   0.48908141  0.05433297  0.25000000
   0.98908141  0.44566703  0.75000000
   0.50000000  0.50000000  0.50000000
   0.00000000  0.00000000  0.50000000
   0.50000000  0.50000000  0.00000000
   0.00000000  0.00000000  0.00000000
   0.72172807  0.19295447  0.54457996
   0.27827193  0.80704553  0.04457996
   0.77827193  0.69295447  0.54457996
   0.91327849  0.98013347  0.25000000
   0.22172807  0.30704553  0.04457996
   0.77827193  0.69295447  0.95542004
   0.41327849  0.51986653  0.75000000
   0.27827193  0.80704553  0.45542004
   0.08672151  0.01986653  0.75000000
   0.58672151  0.48013347  0.25000000
   0.22172807  0.30704553  0.45542004
   0.72172807  0.19295447  0.95542004
 
 position of ions in cartesian coordinates  (Angst):
   0.06102207  3.23180369  1.94647910
   2.85543441  5.51331123  5.83943730
   2.73339026  0.31676538  1.94647910
   5.52780260  2.59827292  5.83943730
   2.79441233  2.91503831  3.89295820
   0.00000000  0.00000000  3.89295820
   2.79441233  2.91503831  0.00000000
   0.00000000  0.00000000  0.00000000
   4.03361166  1.12493933  4.24005404
   1.55521300  4.70513728  0.34709584
   4.34962534  4.03997764  4.24005404
   5.10415334  5.71425320  1.94647910
   1.23919933  1.79009897  0.34709584
   4.34962534  4.03997764  7.43882055
   2.30974101  3.03086172  5.83943730
   1.55521300  4.70513728  3.54586236
   0.48467132  0.11582341  5.83943730
   3.27908366  2.79921490  1.94647910
   1.23919933  1.79009897  3.54586236
   4.03361166  1.12493933  7.43882055
 


--------------------------------------------------------------------------------------------------------


 k-point  1 :   0.1250 0.1250 0.1250  plane waves:    6832
 k-point  2 :   0.3750 0.1250 0.1250  plane waves:    6827
 k-point  3 :   0.1250 0.3750 0.1250  plane waves:    6853
 k-point  4 :   0.3750 0.3750 0.1250  plane waves:    6836
 k-point  5 :   0.1250 0.1250 0.3750  plane waves:    6827
 k-point  6 :   0.3750 0.1250 0.3750  plane waves:    6823
 k-point  7 :   0.1250 0.3750 0.3750  plane waves:    6836
 k-point  8 :   0.3750 0.3750 0.3750  plane waves:    6812

 maximum and minimum number of plane-waves per node :      6853     6812

 maximum number of plane-waves:      6853
 maximum index in each direction: 
   IXMAX=   10   IYMAX=   10   IZMAX=   14
   IXMIN=  -10   IYMIN=  -11   IZMIN=  -14

 NGX is ok and might be reduce to  42
 NGY is ok and might be reduce to  44
 NGZ is ok and might be reduce to  58

 serial   3D FFT for wavefunctions
 parallel 3D FFT for charge:
    minimum data exchange during FFTs selected (reduces bandwidth)


 total amount of memory used by VASP on root node   104461. kBytes
========================================================================

   base      :      30000. kBytes
   nonlr-proj:      19210. kBytes
   fftplans  :       4778. kBytes
   grid      :      21044. kBytes
   one-center:       1966. kBytes
   wavefun   :      27463. kBytes
 
     INWAV:  cpu time    0.0000: real time    0.0000
 Broyden mixing: mesh for mixing (old mesh)
   NGX = 21   NGY = 21   NGZ = 29
  (NGX  = 84   NGY  = 96   NGZ  =120)
  gives a total of  12789 points

 initial charge density was supplied:
 charge density of overlapping atoms calculated
 number of electron     168.0000000 magnetization      29.6000000
 keeping initial charge density in first step


--------------------------------------------------------------------------------------------------------


 Maximum index for non-local projection operator         8346
 Maximum index for augmentation-charges         3590 (set IRDMAX)


--------------------------------------------------------------------------------------------------------


 First call to EWALD:  gamma=   0.280
 Maximum number of real-space cells 3x 3x 2
 Maximum number of reciprocal cells 2x 3x 3

 FEWALD executed in parallel
    FEWALD:  cpu time    0.0020: real time    0.0024


----------------------------------------- Iteration    1(   1)  ---------------------------------------


    POTLOK:  cpu time    1.3878: real time    1.3893
    SETDIJ:  cpu time    0.0730: real time    0.0734
atom =   1  type =  1  l = 0
 
 onsite density matrix
 
spin component  1
 
  1.1515
 
spin component  2
 
  1.0324
 
 occupancies and eigenvectors
 
  o =  1.0324  v =  0.0000  1.0000      0.0000  0.0000
  o =  1.1515  v =  1.0000  0.0000      0.0000  0.0000
atom =   2  type =  1  l = 0
 
 onsite density matrix
 
spin component  1
 
  1.1515
 
spin component  2
 
  1.0324
 
 occupancies and eigenvectors
 
  o =  1.0324  v =  0.0000  1.0000      0.0000  0.0000
  o =  1.1515  v =  1.0000  0.0000      0.0000  0.0000
atom =   3  type =  1  l = 0
 
 onsite density matrix
 
spin component  1
 
  1.1515
 
spin component  2
 
  1.0324
 
 occupancies and eigenvectors
 
  o =  1.0324  v =  0.0000  1.0000      0.0000  0.0000
  o =  1.1515  v =  1.0000  0.0000      0.0000  0.0000
atom =   4  type =  1  l = 0
 
 onsite density matrix
 
spin component  1
 
  1.1515
 
spin component  2
 
  1.0324
 
 occupancies and eigenvectors
 
  o =  1.0324  v =  0.0000  1.0000      0.0000  0.0000
  o =  1.1515  v =  1.0000  0.0000      0.0000  0.0000
atom =   5  type =  2  l = 2
 
 onsite density matrix
 
spin component  1
 
  0.7265  0.0000  0.0000  0.0000  0.0000
  0.0000  0.7265  0.0000  0.0000  0.0000
  0.0000  0.0000  0.7265  0.0000  0.0000
  0.0000  0.0000  0.0000  0.7265  0.0000
  0.0000  0.0000  0.0000  0.0000  0.7265
 
spin component  2
 
  0.3229  0.0000  0.0000  0.0000  0.0000
  0.0000  0.3229  0.0000  0.0000  0.0000
  0.0000  0.0000  0.3229  0.0000  0.0000
  0.0000  0.0000  0.0000  0.3229  0.0000
  0.0000  0.0000  0.0000  0.0000  0.3229
 
 occupancies and eigenvectors
 
  o =  0.3229  v =  0.0000  0.0000  0.0000  0.0000  0.0000  1.0000  0.0000  0.0000  0.0000  0.0000      0.0000  0.0000  0.0000  0.0000  0.0000  0.0000  0.0000  0.0000  0.0000  0.0000
  o =  0.3229  v =  0.0000  0.0000  0.0000  0.0000  0.0000  0.0000  1.0000  0.0000  0.0000  0.0000      0.0000  0.0000  0.0000  0.0000  0.0000  0.0000  0.0000  0.0000  0.0000  0.0000
  o =  0.3229  v =  0.0000  0.0000  0.0000  0.0000  0.0000  0.0000  0.0000  0.0000  1.0000  0.0000      0.0000  0.0000  0.0000  0.0000  0.0000  0.0000  0.0000  0.0000  0.0000  0.0000
  o =  0.3229  v =  0.0000  0.0000  0.0000  0.0000  0.0000  0.0000  0.0000  0.0000  0.0000  1.0000      0.0000  0.0000  0.0000  0.0000  0.0000  0.0000  0.0000  0.0000  0.0000  0.0000
  o =  0.3229  v =  0.0000  0.0000  0.0000  0.0000  0.0000  0.0000  0.0000  1.0000  0.0000  0.0000      0.0000  0.0000  0.0000  0.0000  0.0000  0.0000  0.0000  0.0000  0.0000  0.0000
  o =  0.7265  v =  1.0000  0.0000  0.0000  0.0000  0.0000  0.0000  0.0000  0.0000  0.0000  0.0000      0.0000  0.0000  0.0000  0.0000  0.0000  0.0000  0.0000  0.0000  0.0000  0.0000
  o =  0.7265  v =  0.0000  1.0000  0.0000  0.0000  0.0000  0.0000  0.0000  0.0000  0.0000  0.0000      0.0000  0.0000  0.0000  0.0000  0.0000  0.0000  0.0000  0.0000  0.0000  0.0000
  o =  0.7265  v =  0.0000  0.0000  0.0000  0.0000  1.0000  0.0000  0.0000  0.0000  0.0000  0.0000      0.0000  0.0000  0.0000  0.0000  0.0000  0.0000  0.0000  0.0000  0.0000  0.0000
  o =  0.7265  v =  0.0000  0.0000  1.0000  0.0000  0.0000  0.0000  0.0000  0.0000  0.0000  0.0000      0.0000  0.0000  0.0000  0.0000  0.0000  0.0000  0.0000  0.0000  0.0000  0.0000
  o =  0.7265  v =  0.0000  0.0000  0.0000  1.0000  0.0000  0.0000  0.0000  0.0000  0.0000  0.0000      0.0000  0.0000  0.0000  0.0000  0.0000  0.0000  0.0000  0.0000  0.0000  0.0000
atom =   6  type =  2  l = 2
 
 onsite density matrix
 
spin component  1
 
  0.7265  0.0000  0.0000  0.0000  0.0000
  0.0000  0.7265  0.0000  0.0000  0.0000
  0.0000  0.0000  0.7265  0.0000  0.0000
  0.0000  0.0000  0.0000  0.7265  0.0000
  0.0000  0.0000  0.0000  0.0000  0.7265
 
spin component  2
 
  0.3229  0.0000  0.0000  0.0000  0.0000
  0.0000  0.3229  0.0000  0.0000  0.0000
  0.0000  0.0000  0.3229  0.0000  0.0000
  0.0000  0.0000  0.0000  0.3229  0.0000
  0.0000  0.0000  0.0000  0.0000  0.3229
 
 occupancies and eigenvectors
 
  o =  0.3229  v =  0.0000  0.0000  0.0000  0.0000  0.0000  1.0000  0.0000  0.0000  0.0000  0.0000      0.0000  0.0000  0.0000  0.0000  0.0000  0.0000  0.0000  0.0000  0.0000  0.0000
  o =  0.3229  v =  0.0000  0.0000  0.0000  0.0000  0.0000  0.0000  1.0000  0.0000  0.0000  0.0000      0.0000  0.0000  0.0000  0.0000  0.0000  0.0000  0.0000  0.0000  0.0000  0.0000
  o =  0.3229  v =  0.0000  0.0000  0.0000  0.0000  0.0000  0.0000  0.0000  0.0000  1.0000  0.0000      0.0000  0.0000  0.0000  0.0000  0.0000  0.0000  0.0000  0.0000  0.0000  0.0000
  o =  0.3229  v =  0.0000  0.0000  0.0000  0.0000  0.0000  0.0000  0.0000  0.0000  0.0000  1.0000      0.0000  0.0000  0.0000  0.0000  0.0000  0.0000  0.0000  0.0000  0.0000  0.0000
  o =  0.3229  v =  0.0000  0.0000  0.0000  0.0000  0.0000  0.0000  0.0000  1.0000  0.0000  0.0000      0.0000  0.0000  0.0000  0.0000  0.0000  0.0000  0.0000  0.0000  0.0000  0.0000
  o =  0.7265  v =  1.0000  0.0000  0.0000  0.0000  0.0000  0.0000  0.0000  0.0000  0.0000  0.0000      0.0000  0.0000  0.0000  0.0000  0.0000  0.0000  0.0000  0.0000  0.0000  0.0000
  o =  0.7265  v =  0.0000  1.0000  0.0000  0.0000  0.0000  0.0000  0.0000  0.0000  0.0000  0.0000      0.0000  0.0000  0.0000  0.0000  0.0000  0.0000  0.0000  0.0000  0.0000  0.0000
  o =  0.7265  v =  0.0000  0.0000  0.0000  0.0000  1.0000  0.0000  0.0000  0.0000  0.0000  0.0000      0.0000  0.0000  0.0000  0.0000  0.0000  0.0000  0.0000  0.0000  0.0000  0.0000
  o =  0.7265  v =  0.0000  0.0000  1.0000  0.0000  0.0000  0.0000  0.0000  0.0000  0.0000  0.0000      0.0000  0.0000  0.0000  0.0000  0.0000  0.0000  0.0000  0.0000  0.0000  0.0000
  o =  0.7265  v =  0.0000  0.0000  0.0000  1.0000  0.0000  0.0000  0.0000  0.0000  0.0000  0.0000      0.0000  0.0000  0.0000  0.0000  0.0000  0.0000  0.0000  0.0000  0.0000  0.0000
atom =   7  type =  2  l = 2
 
 onsite density matrix
 
spin component  1
 
  0.7265  0.0000  0.0000  0.0000  0.0000
  0.0000  0.7265  0.0000  0.0000  0.0000
  0.0000  0.0000  0.7265  0.0000  0.0000
  0.0000  0.0000  0.0000  0.7265  0.0000
  0.0000  0.0000  0.0000  0.0000  0.7265
 
spin component  2
 
  0.3229  0.0000  0.0000  0.0000  0.0000
  0.0000  0.3229  0.0000  0.0000  0.0000
  0.0000  0.0000  0.3229  0.0000  0.0000
  0.0000  0.0000  0.0000  0.3229  0.0000
  0.0000  0.0000  0.0000  0.0000  0.3229
 
 occupancies and eigenvectors
 
  o =  0.3229  v =  0.0000  0.0000  0.0000  0.0000  0.0000  1.0000  0.0000  0.0000  0.0000  0.0000      0.0000  0.0000  0.0000  0.0000  0.0000  0.0000  0.0000  0.0000  0.0000  0.0000
  o =  0.3229  v =  0.0000  0.0000  0.0000  0.0000  0.0000  0.0000  1.0000  0.0000  0.0000  0.0000      0.0000  0.0000  0.0000  0.0000  0.0000  0.0000  0.0000  0.0000  0.0000  0.0000
  o =  0.3229  v =  0.0000  0.0000  0.0000  0.0000  0.0000  0.0000  0.0000  0.0000  1.0000  0.0000      0.0000  0.0000  0.0000  0.0000  0.0000  0.0000  0.0000  0.0000  0.0000  0.0000
  o =  0.3229  v =  0.0000  0.0000  0.0000  0.0000  0.0000  0.0000  0.0000  0.0000  0.0000  1.0000      0.0000  0.0000  0.0000  0.0000  0.0000  0.0000  0.0000  0.0000  0.0000  0.0000
  o =  0.3229  v =  0.0000  0.0000  0.0000  0.0000  0.0000  0.0000  0.0000  1.0000  0.0000  0.0000      0.0000  0.0000  0.0000  0.0000  0.0000  0.0000  0.0000  0.0000  0.0000  0.0000
  o =  0.7265  v =  1.0000  0.0000  0.0000  0.0000  0.0000  0.0000  0.0000  0.0000  0.0000  0.0000      0.0000  0.0000  0.0000  0.0000  0.0000  0.0000  0.0000  0.0000  0.0000  0.0000
  o =  0.7265  v =  0.0000  1.0000  0.0000  0.0000  0.0000  0.0000  0.0000  0.0000  0.0000  0.0000      0.0000  0.0000  0.0000  0.0000  0.0000  0.0000  0.0000  0.0000  0.0000  0.0000
  o =  0.7265  v =  0.0000  0.0000  0.0000  0.0000  1.0000  0.0000  0.0000  0.0000  0.0000  0.0000      0.0000  0.0000  0.0000  0.0000  0.0000  0.0000  0.0000  0.0000  0.0000  0.0000
  o =  0.7265  v =  0.0000  0.0000  1.0000  0.0000  0.0000  0.0000  0.0000  0.0000  0.0000  0.0000      0.0000  0.0000  0.0000  0.0000  0.0000  0.0000  0.0000  0.0000  0.0000  0.0000
  o =  0.7265  v =  0.0000  0.0000  0.0000  1.0000  0.0000  0.0000  0.0000  0.0000  0.0000  0.0000      0.0000  0.0000  0.0000  0.0000  0.0000  0.0000  0.0000  0.0000  0.0000  0.0000
atom =   8  type =  2  l = 2
 
 onsite density matrix
 
spin component  1
 
  0.7265  0.0000  0.0000  0.0000  0.0000
  0.0000  0.7265  0.0000  0.0000  0.0000
  0.0000  0.0000  0.7265  0.0000  0.0000
  0.0000  0.0000  0.0000  0.7265  0.0000
  0.0000  0.0000  0.0000  0.0000  0.7265
 
spin component  2
 
  0.3229  0.0000  0.0000  0.0000  0.0000
  0.0000  0.3229  0.0000  0.0000  0.0000
  0.0000  0.0000  0.3229  0.0000  0.0000
  0.0000  0.0000  0.0000  0.3229  0.0000
  0.0000  0.0000  0.0000  0.0000  0.3229
 
 occupancies and eigenvectors
 
  o =  0.3229  v =  0.0000  0.0000  0.0000  0.0000  0.0000  1.0000  0.0000  0.0000  0.0000  0.0000      0.0000  0.0000  0.0000  0.0000  0.0000  0.0000  0.0000  0.0000  0.0000  0.0000
  o =  0.3229  v =  0.0000  0.0000  0.0000  0.0000  0.0000  0.0000  1.0000  0.0000  0.0000  0.0000      0.0000  0.0000  0.0000  0.0000  0.0000  0.0000  0.0000  0.0000  0.0000  0.0000
  o =  0.3229  v =  0.0000  0.0000  0.0000  0.0000  0.0000  0.0000  0.0000  0.0000  1.0000  0.0000      0.0000  0.0000  0.0000  0.0000  0.0000  0.0000  0.0000  0.0000  0.0000  0.0000
  o =  0.3229  v =  0.0000  0.0000  0.0000  0.0000  0.0000  0.0000  0.0000  0.0000  0.0000  1.0000      0.0000  0.0000  0.0000  0.0000  0.0000  0.0000  0.0000  0.0000  0.0000  0.0000
  o =  0.3229  v =  0.0000  0.0000  0.0000  0.0000  0.0000  0.0000  0.0000  1.0000  0.0000  0.0000      0.0000  0.0000  0.0000  0.0000  0.0000  0.0000  0.0000  0.0000  0.0000  0.0000
  o =  0.7265  v =  1.0000  0.0000  0.0000  0.0000  0.0000  0.0000  0.0000  0.0000  0.0000  0.0000      0.0000  0.0000  0.0000  0.0000  0.0000  0.0000  0.0000  0.0000  0.0000  0.0000
  o =  0.7265  v =  0.0000  1.0000  0.0000  0.0000  0.0000  0.0000  0.0000  0.0000  0.0000  0.0000      0.0000  0.0000  0.0000  0.0000  0.0000  0.0000  0.0000  0.0000  0.0000  0.0000
  o =  0.7265  v =  0.0000  0.0000  0.0000  0.0000  1.0000  0.0000  0.0000  0.0000  0.0000  0.0000      0.0000  0.0000  0.0000  0.0000  0.0000  0.0000  0.0000  0.0000  0.0000  0.0000
  o =  0.7265  v =  0.0000  0.0000  1.0000  0.0000  0.0000  0.0000  0.0000  0.0000  0.0000  0.0000      0.0000  0.0000  0.0000  0.0000  0.0000  0.0000  0.0000  0.0000  0.0000  0.0000
  o =  0.7265  v =  0.0000  0.0000  0.0000  1.0000  0.0000  0.0000  0.0000  0.0000  0.0000  0.0000      0.0000  0.0000  0.0000  0.0000  0.0000  0.0000  0.0000  0.0000  0.0000  0.0000
atom =   9  type =  3  l = 0
 
 onsite density matrix
 
spin component  1
 
  1.0253
 
spin component  2
 
  0.8389
 
 occupancies and eigenvectors
 
  o =  0.8389  v =  0.0000  1.0000      0.0000  0.0000
  o =  1.0253  v =  1.0000  0.0000      0.0000  0.0000
atom =  10  type =  3  l = 0
 
 onsite density matrix
 
spin component  1
 
  1.0253
 
spin component  2
 
  0.8389
 
 occupancies and eigenvectors
 
  o =  0.8389  v =  0.0000  1.0000      0.0000  0.0000
  o =  1.0253  v =  1.0000  0.0000      0.0000  0.0000
atom =  11  type =  3  l = 0
 
 onsite density matrix
 
spin component  1
 
  1.0253
 
spin component  2
 
  0.8389
 
 occupancies and eigenvectors
 
  o =  0.8389  v =  0.0000  1.0000      0.0000  0.0000
  o =  1.0253  v =  1.0000  0.0000      0.0000  0.0000
atom =  12  type =  3  l = 0
 
 onsite density matrix
 
spin component  1
 
  1.0253
 
spin component  2
 
  0.8389
 
 occupancies and eigenvectors
 
  o =  0.8389  v =  0.0000  1.0000      0.0000  0.0000
  o =  1.0253  v =  1.0000  0.0000      0.0000  0.0000
atom =  13  type =  3  l = 0
 
 onsite density matrix
 
spin component  1
 
  1.0253
 
spin component  2
 
  0.8389
 
 occupancies and eigenvectors
 
  o =  0.8389  v =  0.0000  1.0000      0.0000  0.0000
  o =  1.0253  v =  1.0000  0.0000      0.0000  0.0000
atom =  14  type =  3  l = 0
 
 onsite density matrix
 
spin component  1
 
  1.0253
 
spin component  2
 
  0.8389
 
 occupancies and eigenvectors
 
  o =  0.8389  v =  0.0000  1.0000      0.0000  0.0000
  o =  1.0253  v =  1.0000  0.0000      0.0000  0.0000
atom =  15  type =  3  l = 0
 
 onsite density matrix
 
spin component  1
 
  1.0253
 
spin component  2
 
  0.8389
 
 occupancies and eigenvectors
 
  o =  0.8389  v =  0.0000  1.0000      0.0000  0.0000
  o =  1.0253  v =  1.0000  0.0000      0.0000  0.0000
atom =  16  type =  3  l = 0
 
 onsite density matrix
 
spin component  1
 
  1.0253
 
spin component  2
 
  0.8389
 
 occupancies and eigenvectors
 
  o =  0.8389  v =  0.0000  1.0000      0.0000  0.0000
  o =  1.0253  v =  1.0000  0.0000      0.0000  0.0000
atom =  17  type =  3  l = 0
 
 onsite density matrix
 
spin component  1
 
  1.0253
 
spin component  2
 
  0.8389
 
 occupancies and eigenvectors
 
  o =  0.8389  v =  0.0000  1.0000      0.0000  0.0000
  o =  1.0253  v =  1.0000  0.0000      0.0000  0.0000
atom =  18  type =  3  l = 0
 
 onsite density matrix
 
spin component  1
 
  1.0253
 
spin component  2
 
  0.8389
 
 occupancies and eigenvectors
 
  o =  0.8389  v =  0.0000  1.0000      0.0000  0.0000
  o =  1.0253  v =  1.0000  0.0000      0.0000  0.0000
atom =  19  type =  3  l = 0
 
 onsite density matrix
 
spin component  1
 
  1.0253
 
spin component  2
 
  0.8389
 
 occupancies and eigenvectors
 
  o =  0.8389  v =  0.0000  1.0000      0.0000  0.0000
  o =  1.0253  v =  1.0000  0.0000      0.0000  0.0000
atom =  20  type =  3  l = 0
 
 onsite density matrix
 
spin component  1
 
  1.0253
 
spin component  2
 
  0.8389
 
 occupancies and eigenvectors
 
  o =  0.8389  v =  0.0000  1.0000      0.0000  0.0000
  o =  1.0253  v =  1.0000  0.0000      0.0000  0.0000
     EDDAV:  cpu time   71.2602: real time   71.4514
 BZINTS: Fermi energy: 26.398667;168.000000 electrons
         Band energy:1350.505785;  BLOECHL correction: -0.186816
       DOS:  cpu time    0.0680: real time    0.0683
    --------------------------------------------
      LOOP:  cpu time   72.7969: real time   72.9903

 eigenvalue-minimisations  :  4472
 total energy-change (2. order) : 0.2601392E+04  (-0.6565938E+04)
 number of electron     168.0000000 magnetization      29.6000000
 augmentation part      168.0000000 magnetization      29.6000000

 Free energy of the ion-electron system (eV)
  ---------------------------------------------------
  alpha Z        PSCENC =       897.56128818
  Ewald energy   TEWEN  =    -12770.96206506
  -Hartree energ DENC   =     -4162.74026136
  -exchange      EXHF   =         0.00000000
  -V(xc)+E(xc)   XCENC  =       739.25985058
  PAW double counting   =     11487.59850164   -11709.74297445
  entropy T*S    EENTRO =         0.00000000
  eigenvalues    EBANDS =      1350.50578457
  atomic energy  EATOM  =     16769.91204912
  Solvation  Ediel_sol  =         0.00000000
  ---------------------------------------------------
  free energy    TOTEN  =      2601.39217324 eV

  energy without entropy =     2601.39217324  energy(sigma->0) =     2601.39217324


--------------------------------------------------------------------------------------------------------




----------------------------------------- Iteration    1(   2)  ---------------------------------------


     EDDAV:  cpu time   66.8198: real time   67.0540
 BZINTS: Fermi energy: 13.541418;168.000000 electrons
         Band energy:-622.989939;  BLOECHL correction: -0.085213
       DOS:  cpu time    0.0710: real time    0.0716
    --------------------------------------------
      LOOP:  cpu time   66.8928: real time   67.1295

 eigenvalue-minimisations  :  4128
 total energy-change (2. order) :-0.1973496E+04  (-0.1719181E+04)
 number of electron     168.0000000 magnetization      29.6000000
 augmentation part      168.0000000 magnetization      29.6000000

 Free energy of the ion-electron system (eV)
  ---------------------------------------------------
  alpha Z        PSCENC =       897.56128818
  Ewald energy   TEWEN  =    -12770.96206506
  -Hartree energ DENC   =     -4162.74026136
  -exchange      EXHF   =         0.00000000
  -V(xc)+E(xc)   XCENC  =       739.25985058
  PAW double counting   =     11487.59850164   -11709.74297445
  entropy T*S    EENTRO =         0.00000000
  eigenvalues    EBANDS =      -622.98993886
  atomic energy  EATOM  =     16769.91204912
  Solvation  Ediel_sol  =         0.00000000
  ---------------------------------------------------
  free energy    TOTEN  =       627.89644981 eV

  energy without entropy =      627.89644981  energy(sigma->0) =      627.89644981


--------------------------------------------------------------------------------------------------------




----------------------------------------- Iteration    1(   3)  ---------------------------------------


     EDDAV:  cpu time   67.9817: real time   68.1707
 BZINTS: Fermi energy:  9.956854;168.000000 electrons
         Band energy:***********;  BLOECHL correction: -0.052071
       DOS:  cpu time    0.0660: real time    0.0670
    --------------------------------------------
      LOOP:  cpu time   68.0527: real time   68.2411

 eigenvalue-minimisations  :  4216
 total energy-change (2. order) :-0.6341016E+03  (-0.5324300E+03)
 number of electron     168.0000000 magnetization      29.6000000
 augmentation part      168.0000000 magnetization      29.6000000

 Free energy of the ion-electron system (eV)
  ---------------------------------------------------
  alpha Z        PSCENC =       897.56128818
  Ewald energy   TEWEN  =    -12770.96206506
  -Hartree energ DENC   =     -4162.74026136
  -exchange      EXHF   =         0.00000000
  -V(xc)+E(xc)   XCENC  =       739.25985058
  PAW double counting   =     11487.59850164   -11709.74297445
  entropy T*S    EENTRO =         0.00000000
  eigenvalues    EBANDS =     -1257.09154807
  atomic energy  EATOM  =     16769.91204912
  Solvation  Ediel_sol  =         0.00000000
  ---------------------------------------------------
  free energy    TOTEN  =        -6.20515940 eV

  energy without entropy =       -6.20515940  energy(sigma->0) =       -6.20515940


--------------------------------------------------------------------------------------------------------




----------------------------------------- Iteration    1(   4)  ---------------------------------------


     EDDAV:  cpu time   84.7871: real time   84.9906
 BZINTS: Fermi energy:  9.416439;168.000000 electrons
         Band energy:***********;  BLOECHL correction: -0.006802
       DOS:  cpu time    0.0680: real time    0.0680
    --------------------------------------------
      LOOP:  cpu time   84.8561: real time   85.0624

 eigenvalue-minimisations  :  5528
 total energy-change (2. order) :-0.1647130E+03  (-0.1531037E+03)
 number of electron     168.0000000 magnetization      29.6000000
 augmentation part      168.0000000 magnetization      29.6000000

 Free energy of the ion-electron system (eV)
  ---------------------------------------------------
  alpha Z        PSCENC =       897.56128818
  Ewald energy   TEWEN  =    -12770.96206506
  -Hartree energ DENC   =     -4162.74026136
  -exchange      EXHF   =         0.00000000
  -V(xc)+E(xc)   XCENC  =       739.25985058
  PAW double counting   =     11487.59850164   -11709.74297445
  entropy T*S    EENTRO =         0.00000000
  eigenvalues    EBANDS =     -1421.80449837
  atomic energy  EATOM  =     16769.91204912
  Solvation  Ediel_sol  =         0.00000000
  ---------------------------------------------------
  free energy    TOTEN  =      -170.91810970 eV

  energy without entropy =     -170.91810970  energy(sigma->0) =     -170.91810970


--------------------------------------------------------------------------------------------------------




----------------------------------------- Iteration    1(   5)  ---------------------------------------


     EDDAV:  cpu time   96.6033: real time   96.9041
 BZINTS: Fermi energy:  8.902189;168.000000 electrons
         Band energy:***********;  BLOECHL correction: -0.004106
       DOS:  cpu time    0.0650: real time    0.0650
    CHARGE:  cpu time    1.2508: real time    1.2518
    MIXING:  cpu time    0.0160: real time    0.0160
    --------------------------------------------
      LOOP:  cpu time   97.9361: real time   98.2404

 eigenvalue-minimisations  :  6456
 total energy-change (2. order) :-0.1411215E+02  (-0.1368890E+02)
 number of electron     167.9999935 magnetization      21.0179842
 augmentation part       40.3873885 magnetization      15.0350715

 Broyden mixing:
  rms(total) = 0.41106E+01    rms(broyden)= 0.41100E+01
  rms(prec ) = 0.59697E+01
  weight for this iteration     100.00

 Free energy of the ion-electron system (eV)
  ---------------------------------------------------
  alpha Z        PSCENC =       897.56128818
  Ewald energy   TEWEN  =    -12770.96206506
  -Hartree energ DENC   =     -4162.74026136
  -exchange      EXHF   =         0.00000000
  -V(xc)+E(xc)   XCENC  =       739.25985058
  PAW double counting   =     11487.59850164   -11709.74297445
  entropy T*S    EENTRO =         0.00000000
  eigenvalues    EBANDS =     -1435.91665008
  atomic energy  EATOM  =     16769.91204912
  Solvation  Ediel_sol  =         0.00000000
  ---------------------------------------------------
  free energy    TOTEN  =      -185.03026141 eV

  energy without entropy =     -185.03026141  energy(sigma->0) =     -185.03026141


--------------------------------------------------------------------------------------------------------




----------------------------------------- Iteration    1(   6)  ---------------------------------------


    POTLOK:  cpu time    1.3808: real time    1.3847
    SETDIJ:  cpu time    0.0730: real time    0.0738
atom =   1  type =  1  l = 0
 
 onsite density matrix
 
spin component  1
 
  1.0157
 
spin component  2
 
  1.0884
 
 occupancies and eigenvectors
 
  o =  1.0157  v =  1.0000  0.0000      0.0000  0.0000
  o =  1.0884  v =  0.0000  1.0000      0.0000  0.0000
atom =   2  type =  1  l = 0
 
 onsite density matrix
 
spin component  1
 
  1.0157
 
spin component  2
 
  1.0884
 
 occupancies and eigenvectors
 
  o =  1.0157  v =  1.0000  0.0000      0.0000  0.0000
  o =  1.0884  v =  0.0000  1.0000      0.0000  0.0000
atom =   3  type =  1  l = 0
 
 onsite density matrix
 
spin component  1
 
  1.0157
 
spin component  2
 
  1.0884
 
 occupancies and eigenvectors
 
  o =  1.0157  v =  1.0000  0.0000      0.0000  0.0000
  o =  1.0884  v =  0.0000  1.0000      0.0000  0.0000
atom =   4  type =  1  l = 0
 
 onsite density matrix
 
spin component  1
 
  1.0157
 
spin component  2
 
  1.0884
 
 occupancies and eigenvectors
 
  o =  1.0157  v =  1.0000  0.0000      0.0000  0.0000
  o =  1.0884  v =  0.0000  1.0000      0.0000  0.0000
atom =   5  type =  2  l = 2
 
 onsite density matrix
 
spin component  1
 
  0.8147 -0.0557  0.1831 -0.0913 -0.0871
 -0.0557  1.0292  0.0198 -0.0056 -0.0093
  0.1831  0.0198  0.7169  0.1671  0.0461
 -0.0913 -0.0056  0.1671  0.9626 -0.0276
 -0.0871 -0.0093  0.0461 -0.0276  1.0082
 
spin component  2
 
  0.1064  0.0407 -0.1215  0.0612  0.0626
  0.0407 -0.0513 -0.0102  0.0059  0.0069
 -0.1215 -0.0102  0.1692 -0.1156 -0.0300
  0.0612  0.0059 -0.1156 -0.0044  0.0178
  0.0626  0.0069 -0.0300  0.0178 -0.0366
 
 occupancies and eigenvectors
 
  o = -0.0706  v =  0.0000  0.0000  0.0000  0.0000  0.0000 -0.4347  0.6547 -0.1832 -0.1307  0.5759      0.0000  0.0000  0.0000  0.0000  0.0000  0.0000  0.0000  0.0000  0.0000  0.0000
  o = -0.0620  v =  0.0000  0.0000  0.0000  0.0000  0.0000  0.0851 -0.2194 -0.4080 -0.8820 -0.0164      0.0000  0.0000  0.0000  0.0000  0.0000  0.0000  0.0000  0.0000  0.0000  0.0000
  o = -0.0522  v =  0.0000  0.0000  0.0000  0.0000  0.0000  0.1067  0.6678 -0.0670 -0.1113 -0.7251      0.0000  0.0000  0.0000  0.0000  0.0000  0.0000  0.0000  0.0000  0.0000  0.0000
  o =  0.0386  v =  0.0000  0.0000  0.0000  0.0000  0.0000  0.6944  0.2639  0.5243 -0.2474  0.3348      0.0000  0.0000  0.0000  0.0000  0.0000  0.0000  0.0000  0.0000  0.0000  0.0000
  o =  0.3295  v =  0.0000  0.0000  0.0000  0.0000  0.0000 -0.5569 -0.0875  0.7215 -0.3625 -0.1736      0.0000  0.0000  0.0000  0.0000  0.0000  0.0000  0.0000  0.0000  0.0000  0.0000
  o =  0.4788  v = -0.5532 -0.0887  0.7228 -0.3650 -0.1747  0.0000  0.0000  0.0000  0.0000  0.0000      0.0000  0.0000  0.0000  0.0000  0.0000  0.0000  0.0000  0.0000  0.0000  0.0000
  o =  0.9191  v =  0.6862  0.2719  0.5110 -0.2631  0.3533  0.0000  0.0000  0.0000  0.0000  0.0000      0.0000  0.0000  0.0000  0.0000  0.0000  0.0000  0.0000  0.0000  0.0000  0.0000
  o =  1.0287  v = -0.0980 -0.6599  0.1376  0.2526  0.6872  0.0000  0.0000  0.0000  0.0000  0.0000      0.0000  0.0000  0.0000  0.0000  0.0000  0.0000  0.0000  0.0000  0.0000  0.0000
  o =  1.0488  v =  0.0222  0.2145  0.4292  0.8559 -0.1914  0.0000  0.0000  0.0000  0.0000  0.0000      0.0000  0.0000  0.0000  0.0000  0.0000  0.0000  0.0000  0.0000  0.0000  0.0000
  o =  1.0562  v =  0.4616 -0.6609  0.1151 -0.0337 -0.5794  0.0000  0.0000  0.0000  0.0000  0.0000      0.0000  0.0000  0.0000  0.0000  0.0000  0.0000  0.0000  0.0000  0.0000  0.0000
atom =   6  type =  2  l = 2
 
 onsite density matrix
 
spin component  1
 
  0.8147  0.0557 -0.1831 -0.0913  0.0871
  0.0557  1.0292  0.0198  0.0056 -0.0093
 -0.1831  0.0198  0.7169 -0.1671  0.0461
 -0.0913  0.0056 -0.1671  0.9626  0.0276
  0.0871 -0.0093  0.0461  0.0276  1.0082
 
spin component  2
 
  0.1064 -0.0407  0.1215  0.0612 -0.0626
 -0.0407 -0.0513 -0.0102 -0.0059  0.0069
  0.1215 -0.0102  0.1692  0.1156 -0.0300
  0.0612 -0.0059  0.1156 -0.0044 -0.0178
 -0.0626  0.0069 -0.0300 -0.0178 -0.0366
 
 occupancies and eigenvectors
 
  o = -0.0706  v =  0.0000  0.0000  0.0000  0.0000  0.0000 -0.4347 -0.6547  0.1832 -0.1307 -0.5759      0.0000  0.0000  0.0000  0.0000  0.0000  0.0000  0.0000  0.0000  0.0000  0.0000
  o = -0.0620  v =  0.0000  0.0000  0.0000  0.0000  0.0000 -0.0851 -0.2194 -0.4080  0.8820 -0.0164      0.0000  0.0000  0.0000  0.0000  0.0000  0.0000  0.0000  0.0000  0.0000  0.0000
  o = -0.0522  v =  0.0000  0.0000  0.0000  0.0000  0.0000  0.1067 -0.6678  0.0670 -0.1113  0.7251      0.0000  0.0000  0.0000  0.0000  0.0000  0.0000  0.0000  0.0000  0.0000  0.0000
  o =  0.0386  v =  0.0000  0.0000  0.0000  0.0000  0.0000  0.6944 -0.2639 -0.5243 -0.2474 -0.3348      0.0000  0.0000  0.0000  0.0000  0.0000  0.0000  0.0000  0.0000  0.0000  0.0000
  o =  0.3295  v =  0.0000  0.0000  0.0000  0.0000  0.0000 -0.5569  0.0875 -0.7215 -0.3625  0.1736      0.0000  0.0000  0.0000  0.0000  0.0000  0.0000  0.0000  0.0000  0.0000  0.0000
  o =  0.4788  v =  0.5532 -0.0887  0.7228  0.3650 -0.1747  0.0000  0.0000  0.0000  0.0000  0.0000      0.0000  0.0000  0.0000  0.0000  0.0000  0.0000  0.0000  0.0000  0.0000  0.0000
  o =  0.9191  v =  0.6862 -0.2719 -0.5110 -0.2631 -0.3533  0.0000  0.0000  0.0000  0.0000  0.0000      0.0000  0.0000  0.0000  0.0000  0.0000  0.0000  0.0000  0.0000  0.0000  0.0000
  o =  1.0287  v =  0.0980 -0.6599  0.1376 -0.2526  0.6872  0.0000  0.0000  0.0000  0.0000  0.0000      0.0000  0.0000  0.0000  0.0000  0.0000  0.0000  0.0000  0.0000  0.0000  0.0000
  o =  1.0488  v = -0.0222  0.2145  0.4292 -0.8559 -0.1914  0.0000  0.0000  0.0000  0.0000  0.0000      0.0000  0.0000  0.0000  0.0000  0.0000  0.0000  0.0000  0.0000  0.0000  0.0000
  o =  1.0562  v =  0.4616  0.6609 -0.1151 -0.0337  0.5794  0.0000  0.0000  0.0000  0.0000  0.0000      0.0000  0.0000  0.0000  0.0000  0.0000  0.0000  0.0000  0.0000  0.0000  0.0000
atom =   7  type =  2  l = 2
 
 onsite density matrix
 
spin component  1
 
  0.8147  0.0557  0.1831  0.0913 -0.0871
  0.0557  1.0292 -0.0198 -0.0056  0.0093
  0.1831 -0.0198  0.7169 -0.1671  0.0461
  0.0913 -0.0056 -0.1671  0.9626  0.0276
 -0.0871  0.0093  0.0461  0.0276  1.0082
 
spin component  2
 
  0.1064 -0.0407 -0.1215 -0.0612  0.0626
 -0.0407 -0.0513  0.0102  0.0059 -0.0069
 -0.1215  0.0102  0.1692  0.1156 -0.0300
 -0.0612  0.0059  0.1156 -0.0044 -0.0178
  0.0626 -0.0069 -0.0300 -0.0178 -0.0366
 
 occupancies and eigenvectors
 
  o = -0.0706  v =  0.0000  0.0000  0.0000  0.0000  0.0000  0.4347  0.6547  0.1832 -0.1307 -0.5759      0.0000  0.0000  0.0000  0.0000  0.0000  0.0000  0.0000  0.0000  0.0000  0.0000
  o = -0.0620  v =  0.0000  0.0000  0.0000  0.0000  0.0000  0.0851  0.2194 -0.4080  0.8820 -0.0164      0.0000  0.0000  0.0000  0.0000  0.0000  0.0000  0.0000  0.0000  0.0000  0.0000
  o = -0.0522  v =  0.0000  0.0000  0.0000  0.0000  0.0000 -0.1067  0.6678  0.0670 -0.1113  0.7251      0.0000  0.0000  0.0000  0.0000  0.0000  0.0000  0.0000  0.0000  0.0000  0.0000
  o =  0.0386  v =  0.0000  0.0000  0.0000  0.0000  0.0000  0.6944 -0.2639  0.5243  0.2474  0.3348      0.0000  0.0000  0.0000  0.0000  0.0000  0.0000  0.0000  0.0000  0.0000  0.0000
  o =  0.3295  v =  0.0000  0.0000  0.0000  0.0000  0.0000 -0.5569  0.0875  0.7215  0.3625 -0.1736      0.0000  0.0000  0.0000  0.0000  0.0000  0.0000  0.0000  0.0000  0.0000  0.0000
  o =  0.4788  v = -0.5532  0.0887  0.7228  0.3650 -0.1747  0.0000  0.0000  0.0000  0.0000  0.0000      0.0000  0.0000  0.0000  0.0000  0.0000  0.0000  0.0000  0.0000  0.0000  0.0000
  o =  0.9191  v = -0.6862  0.2719 -0.5110 -0.2631 -0.3533  0.0000  0.0000  0.0000  0.0000  0.0000      0.0000  0.0000  0.0000  0.0000  0.0000  0.0000  0.0000  0.0000  0.0000  0.0000
  o =  1.0287  v = -0.0980  0.6599  0.1376 -0.2526  0.6872  0.0000  0.0000  0.0000  0.0000  0.0000      0.0000  0.0000  0.0000  0.0000  0.0000  0.0000  0.0000  0.0000  0.0000  0.0000
  o =  1.0488  v =  0.0222 -0.2145  0.4292 -0.8559 -0.1914  0.0000  0.0000  0.0000  0.0000  0.0000      0.0000  0.0000  0.0000  0.0000  0.0000  0.0000  0.0000  0.0000  0.0000  0.0000
  o =  1.0562  v = -0.4616 -0.6609 -0.1151 -0.0337  0.5794  0.0000  0.0000  0.0000  0.0000  0.0000      0.0000  0.0000  0.0000  0.0000  0.0000  0.0000  0.0000  0.0000  0.0000  0.0000
atom =   8  type =  2  l = 2
 
 onsite density matrix
 
spin component  1
 
  0.8147 -0.0557 -0.1831  0.0913  0.0871
 -0.0557  1.0292 -0.0198  0.0056  0.0093
 -0.1831 -0.0198  0.7169  0.1671  0.0461
  0.0913  0.0056  0.1671  0.9626 -0.0276
  0.0871  0.0093  0.0461 -0.0276  1.0082
 
spin component  2
 
  0.1064  0.0407  0.1215 -0.0612 -0.0626
  0.0407 -0.0513  0.0102 -0.0059 -0.0069
  0.1215  0.0102  0.1692 -0.1156 -0.0300
 -0.0612 -0.0059 -0.1156 -0.0044  0.0178
 -0.0626 -0.0069 -0.0300  0.0178 -0.0366
 
 occupancies and eigenvectors
 
  o = -0.0706  v =  0.0000  0.0000  0.0000  0.0000  0.0000  0.4347 -0.6547 -0.1832 -0.1307  0.5759      0.0000  0.0000  0.0000  0.0000  0.0000  0.0000  0.0000  0.0000  0.0000  0.0000
  o = -0.0620  v =  0.0000  0.0000  0.0000  0.0000  0.0000 -0.0851  0.2194 -0.4080 -0.8820 -0.0164      0.0000  0.0000  0.0000  0.0000  0.0000  0.0000  0.0000  0.0000  0.0000  0.0000
  o = -0.0522  v =  0.0000  0.0000  0.0000  0.0000  0.0000 -0.1067 -0.6678 -0.0670 -0.1113 -0.7251      0.0000  0.0000  0.0000  0.0000  0.0000  0.0000  0.0000  0.0000  0.0000  0.0000
  o =  0.0386  v =  0.0000  0.0000  0.0000  0.0000  0.0000  0.6944  0.2639 -0.5243  0.2474 -0.3348      0.0000  0.0000  0.0000  0.0000  0.0000  0.0000  0.0000  0.0000  0.0000  0.0000
  o =  0.3295  v =  0.0000  0.0000  0.0000  0.0000  0.0000 -0.5569 -0.0875 -0.7215  0.3625  0.1736      0.0000  0.0000  0.0000  0.0000  0.0000  0.0000  0.0000  0.0000  0.0000  0.0000
  o =  0.4788  v =  0.5532  0.0887  0.7228 -0.3650 -0.1747  0.0000  0.0000  0.0000  0.0000  0.0000      0.0000  0.0000  0.0000  0.0000  0.0000  0.0000  0.0000  0.0000  0.0000  0.0000
  o =  0.9191  v = -0.6862 -0.2719  0.5110 -0.2631  0.3533  0.0000  0.0000  0.0000  0.0000  0.0000      0.0000  0.0000  0.0000  0.0000  0.0000  0.0000  0.0000  0.0000  0.0000  0.0000
  o =  1.0287  v =  0.0980  0.6599  0.1376  0.2526  0.6872  0.0000  0.0000  0.0000  0.0000  0.0000      0.0000  0.0000  0.0000  0.0000  0.0000  0.0000  0.0000  0.0000  0.0000  0.0000
  o =  1.0488  v = -0.0222 -0.2145  0.4292  0.8559 -0.1914  0.0000  0.0000  0.0000  0.0000  0.0000      0.0000  0.0000  0.0000  0.0000  0.0000  0.0000  0.0000  0.0000  0.0000  0.0000
  o =  1.0562  v = -0.4616  0.6609  0.1151 -0.0337 -0.5794  0.0000  0.0000  0.0000  0.0000  0.0000      0.0000  0.0000  0.0000  0.0000  0.0000  0.0000  0.0000  0.0000  0.0000  0.0000
atom =   9  type =  3  l = 0
 
 onsite density matrix
 
spin component  1
 
  0.8845
 
spin component  2
 
  0.9825
 
 occupancies and eigenvectors
 
  o =  0.8845  v =  1.0000  0.0000      0.0000  0.0000
  o =  0.9825  v =  0.0000  1.0000      0.0000  0.0000
atom =  10  type =  3  l = 0
 
 onsite density matrix
 
spin component  1
 
  0.8845
 
spin component  2
 
  0.9825
 
 occupancies and eigenvectors
 
  o =  0.8845  v =  1.0000  0.0000      0.0000  0.0000
  o =  0.9825  v =  0.0000  1.0000      0.0000  0.0000
atom =  11  type =  3  l = 0
 
 onsite density matrix
 
spin component  1
 
  0.8845
 
spin component  2
 
  0.9825
 
 occupancies and eigenvectors
 
  o =  0.8845  v =  1.0000  0.0000      0.0000  0.0000
  o =  0.9825  v =  0.0000  1.0000      0.0000  0.0000
atom =  12  type =  3  l = 0
 
 onsite density matrix
 
spin component  1
 
  0.8801
 
spin component  2
 
  0.9861
 
 occupancies and eigenvectors
 
  o =  0.8801  v =  1.0000  0.0000      0.0000  0.0000
  o =  0.9861  v =  0.0000  1.0000      0.0000  0.0000
atom =  13  type =  3  l = 0
 
 onsite density matrix
 
spin component  1
 
  0.8845
 
spin component  2
 
  0.9825
 
 occupancies and eigenvectors
 
  o =  0.8845  v =  1.0000  0.0000      0.0000  0.0000
  o =  0.9825  v =  0.0000  1.0000      0.0000  0.0000
atom =  14  type =  3  l = 0
 
 onsite density matrix
 
spin component  1
 
  0.8845
 
spin component  2
 
  0.9825
 
 occupancies and eigenvectors
 
  o =  0.8845  v =  1.0000  0.0000      0.0000  0.0000
  o =  0.9825  v =  0.0000  1.0000      0.0000  0.0000
atom =  15  type =  3  l = 0
 
 onsite density matrix
 
spin component  1
 
  0.8801
 
spin component  2
 
  0.9861
 
 occupancies and eigenvectors
 
  o =  0.8801  v =  1.0000  0.0000      0.0000  0.0000
  o =  0.9861  v =  0.0000  1.0000      0.0000  0.0000
atom =  16  type =  3  l = 0
 
 onsite density matrix
 
spin component  1
 
  0.8845
 
spin component  2
 
  0.9825
 
 occupancies and eigenvectors
 
  o =  0.8845  v =  1.0000  0.0000      0.0000  0.0000
  o =  0.9825  v =  0.0000  1.0000      0.0000  0.0000
atom =  17  type =  3  l = 0
 
 onsite density matrix
 
spin component  1
 
  0.8801
 
spin component  2
 
  0.9861
 
 occupancies and eigenvectors
 
  o =  0.8801  v =  1.0000  0.0000      0.0000  0.0000
  o =  0.9861  v =  0.0000  1.0000      0.0000  0.0000
atom =  18  type =  3  l = 0
 
 onsite density matrix
 
spin component  1
 
  0.8801
 
spin component  2
 
  0.9861
 
 occupancies and eigenvectors
 
  o =  0.8801  v =  1.0000  0.0000      0.0000  0.0000
  o =  0.9861  v =  0.0000  1.0000      0.0000  0.0000
atom =  19  type =  3  l = 0
 
 onsite density matrix
 
spin component  1
 
  0.8845
 
spin component  2
 
  0.9825
 
 occupancies and eigenvectors
 
  o =  0.8845  v =  1.0000  0.0000      0.0000  0.0000
  o =  0.9825  v =  0.0000  1.0000      0.0000  0.0000
atom =  20  type =  3  l = 0
 
 onsite density matrix
 
spin component  1
 
  0.8845
 
spin component  2
 
  0.9825
 
 occupancies and eigenvectors
 
  o =  0.8845  v =  1.0000  0.0000      0.0000  0.0000
  o =  0.9825  v =  0.0000  1.0000      0.0000  0.0000
    EDDIAG:  cpu time    6.1421: real time    6.1504
  RMM-DIIS:  cpu time   44.0463: real time   44.1703
    ORTHCH:  cpu time    0.5939: real time    0.5935
 BZINTS: Fermi energy:  5.992538;168.000000 electrons
         Band energy:***********;  BLOECHL correction: -0.008061
       DOS:  cpu time    0.0610: real time    0.0610
    CHARGE:  cpu time    1.2268: real time    1.2276
    MIXING:  cpu time    0.0160: real time    0.0162
    --------------------------------------------
      LOOP:  cpu time   53.5459: real time   53.6837

 eigenvalue-minimisations  :  5392
 total energy-change (2. order) : 0.2314669E+02  (-0.3582708E+02)
 number of electron     167.9999934 magnetization      18.6061546
 augmentation part       39.9338769 magnetization      13.8315284

 Broyden mixing:
  rms(total) = 0.21471E+01    rms(broyden)= 0.21469E+01
  rms(prec ) = 0.23602E+01
  weight for this iteration     100.00

 eigenvalues of (default mixing * dielectric matrix)
  average eigenvalue GAMMA=   0.6067
  0.6067

 Free energy of the ion-electron system (eV)
  ---------------------------------------------------
  alpha Z        PSCENC =       897.56128818
  Ewald energy   TEWEN  =    -12770.96206506
  -Hartree energ DENC   =     -4108.86153715
  -exchange      EXHF   =         0.00000000
  -V(xc)+E(xc)   XCENC  =       741.40766097
  PAW double counting   =     11792.64383001   -12013.50575014
  entropy T*S    EENTRO =         0.00000000
  eigenvalues    EBANDS =     -1470.07904527
  atomic energy  EATOM  =     16769.91204912
  Solvation  Ediel_sol  =         0.00000000
  ---------------------------------------------------
  free energy    TOTEN  =      -161.88356933 eV

  energy without entropy =     -161.88356933  energy(sigma->0) =     -161.88356933


--------------------------------------------------------------------------------------------------------




----------------------------------------- Iteration    1(   7)  ---------------------------------------


    POTLOK:  cpu time    1.3788: real time    1.3809
    SETDIJ:  cpu time    0.0740: real time    0.0738
atom =   1  type =  1  l = 0
 
 onsite density matrix
 
spin component  1
 
  1.0440
 
spin component  2
 
  1.0259
 
 occupancies and eigenvectors
 
  o =  1.0259  v =  0.0000  1.0000      0.0000  0.0000
  o =  1.0440  v =  1.0000  0.0000      0.0000  0.0000
atom =   2  type =  1  l = 0
 
 onsite density matrix
 
spin component  1
 
  1.0440
 
spin component  2
 
  1.0259
 
 occupancies and eigenvectors
 
  o =  1.0259  v =  0.0000  1.0000      0.0000  0.0000
  o =  1.0440  v =  1.0000  0.0000      0.0000  0.0000
atom =   3  type =  1  l = 0
 
 onsite density matrix
 
spin component  1
 
  1.0440
 
spin component  2
 
  1.0259
 
 occupancies and eigenvectors
 
  o =  1.0259  v =  0.0000  1.0000      0.0000  0.0000
  o =  1.0440  v =  1.0000  0.0000      0.0000  0.0000
atom =   4  type =  1  l = 0
 
 onsite density matrix
 
spin component  1
 
  1.0440
 
spin component  2
 
  1.0259
 
 occupancies and eigenvectors
 
  o =  1.0259  v =  0.0000  1.0000      0.0000  0.0000
  o =  1.0440  v =  1.0000  0.0000      0.0000  0.0000
atom =   5  type =  2  l = 2
 
 onsite density matrix
 
spin component  1
 
  0.7904 -0.0247  0.1132 -0.0520 -0.0403
 -0.0247  0.9004  0.0169 -0.0063 -0.0033
  0.1132  0.0169  0.7510  0.0744  0.0308
 -0.0520 -0.0063  0.0744  0.8701 -0.0164
 -0.0403 -0.0033  0.0308 -0.0164  0.8906
 
spin component  2
 
  0.1376  0.0109 -0.0404  0.0167  0.0161
  0.0109  0.0850 -0.0025  0.0086 -0.0023
 -0.0404 -0.0025  0.1420 -0.0216 -0.0105
  0.0167  0.0086 -0.0216  0.0964  0.0047
  0.0161 -0.0023 -0.0105  0.0047  0.0889
 
 occupancies and eigenvectors
 
  o =  0.0758  v =  0.0000  0.0000  0.0000  0.0000  0.0000 -0.2626  0.7355 -0.1911 -0.3968  0.4428      0.0000  0.0000  0.0000  0.0000  0.0000  0.0000  0.0000  0.0000  0.0000  0.0000
  o =  0.0856  v =  0.0000  0.0000  0.0000  0.0000  0.0000  0.2291  0.2119 -0.1736 -0.5320 -0.7677      0.0000  0.0000  0.0000  0.0000  0.0000  0.0000  0.0000  0.0000  0.0000  0.0000
  o =  0.0935  v =  0.0000  0.0000  0.0000  0.0000  0.0000  0.1389 -0.5871 -0.1357 -0.6852  0.3849      0.0000  0.0000  0.0000  0.0000  0.0000  0.0000  0.0000  0.0000  0.0000  0.0000
  o =  0.1021  v =  0.0000  0.0000  0.0000  0.0000  0.0000  0.6613  0.2440  0.6767 -0.1053  0.1846      0.0000  0.0000  0.0000  0.0000  0.0000  0.0000  0.0000  0.0000  0.0000  0.0000
  o =  0.1929  v =  0.0000  0.0000  0.0000  0.0000  0.0000 -0.6496 -0.0997  0.6760 -0.2809 -0.1796      0.0000  0.0000  0.0000  0.0000  0.0000  0.0000  0.0000  0.0000  0.0000  0.0000
  o =  0.6100  v =  0.5921  0.1007 -0.7032  0.3335  0.1830  0.0000  0.0000  0.0000  0.0000  0.0000      0.0000  0.0000  0.0000  0.0000  0.0000  0.0000  0.0000  0.0000  0.0000  0.0000
  o =  0.8755  v = -0.6504 -0.2522 -0.5351  0.3038 -0.3671  0.0000  0.0000  0.0000  0.0000  0.0000      0.0000  0.0000  0.0000  0.0000  0.0000  0.0000  0.0000  0.0000  0.0000  0.0000
  o =  0.8990  v = -0.1085 -0.6399  0.1400  0.3070  0.6818  0.0000  0.0000  0.0000  0.0000  0.0000      0.0000  0.0000  0.0000  0.0000  0.0000  0.0000  0.0000  0.0000  0.0000  0.0000
  o =  0.9067  v =  0.0037 -0.3465 -0.4072 -0.8343  0.1346  0.0000  0.0000  0.0000  0.0000  0.0000      0.0000  0.0000  0.0000  0.0000  0.0000  0.0000  0.0000  0.0000  0.0000  0.0000
  o =  0.9114  v = -0.4633  0.6298 -0.1836 -0.0787  0.5905  0.0000  0.0000  0.0000  0.0000  0.0000      0.0000  0.0000  0.0000  0.0000  0.0000  0.0000  0.0000  0.0000  0.0000  0.0000
atom =   6  type =  2  l = 2
 
 onsite density matrix
 
spin component  1
 
  0.7904  0.0247 -0.1132 -0.0520  0.0403
  0.0247  0.9004  0.0169  0.0063 -0.0033
 -0.1132  0.0169  0.7510 -0.0744  0.0308
 -0.0520  0.0063 -0.0744  0.8701  0.0164
  0.0403 -0.0033  0.0308  0.0164  0.8906
 
spin component  2
 
  0.1376 -0.0109  0.0404  0.0167 -0.0161
 -0.0109  0.0850 -0.0025 -0.0086 -0.0023
  0.0404 -0.0025  0.1420  0.0216 -0.0105
  0.0167 -0.0086  0.0216  0.0964 -0.0047
 -0.0161 -0.0023 -0.0105 -0.0047  0.0889
 
 occupancies and eigenvectors
 
  o =  0.0758  v =  0.0000  0.0000  0.0000  0.0000  0.0000 -0.2626 -0.7355  0.1911 -0.3968 -0.4428      0.0000  0.0000  0.0000  0.0000  0.0000  0.0000  0.0000  0.0000  0.0000  0.0000
  o =  0.0856  v =  0.0000  0.0000  0.0000  0.0000  0.0000  0.2291 -0.2119  0.1736 -0.5320  0.7677      0.0000  0.0000  0.0000  0.0000  0.0000  0.0000  0.0000  0.0000  0.0000  0.0000
  o =  0.0935  v =  0.0000  0.0000  0.0000  0.0000  0.0000 -0.1389 -0.5871 -0.1357  0.6852  0.3849      0.0000  0.0000  0.0000  0.0000  0.0000  0.0000  0.0000  0.0000  0.0000  0.0000
  o =  0.1021  v =  0.0000  0.0000  0.0000  0.0000  0.0000  0.6613 -0.2440 -0.6767 -0.1053 -0.1846      0.0000  0.0000  0.0000  0.0000  0.0000  0.0000  0.0000  0.0000  0.0000  0.0000
  o =  0.1929  v =  0.0000  0.0000  0.0000  0.0000  0.0000 -0.6496  0.0997 -0.6760 -0.2809  0.1796      0.0000  0.0000  0.0000  0.0000  0.0000  0.0000  0.0000  0.0000  0.0000  0.0000
  o =  0.6100  v = -0.5921  0.1007 -0.7032 -0.3335  0.1830  0.0000  0.0000  0.0000  0.0000  0.0000      0.0000  0.0000  0.0000  0.0000  0.0000  0.0000  0.0000  0.0000  0.0000  0.0000
  o =  0.8755  v = -0.6504  0.2522  0.5351  0.3038  0.3671  0.0000  0.0000  0.0000  0.0000  0.0000      0.0000  0.0000  0.0000  0.0000  0.0000  0.0000  0.0000  0.0000  0.0000  0.0000
  o =  0.8990  v = -0.1085  0.6399 -0.1400  0.3070 -0.6818  0.0000  0.0000  0.0000  0.0000  0.0000      0.0000  0.0000  0.0000  0.0000  0.0000  0.0000  0.0000  0.0000  0.0000  0.0000
  o =  0.9067  v = -0.0037 -0.3465 -0.4072  0.8343  0.1346  0.0000  0.0000  0.0000  0.0000  0.0000      0.0000  0.0000  0.0000  0.0000  0.0000  0.0000  0.0000  0.0000  0.0000  0.0000
  o =  0.9114  v =  0.4633  0.6298 -0.1836  0.0787  0.5905  0.0000  0.0000  0.0000  0.0000  0.0000      0.0000  0.0000  0.0000  0.0000  0.0000  0.0000  0.0000  0.0000  0.0000  0.0000
atom =   7  type =  2  l = 2
 
 onsite density matrix
 
spin component  1
 
  0.7904  0.0247  0.1132  0.0520 -0.0403
  0.0247  0.9004 -0.0169 -0.0063  0.0033
  0.1132 -0.0169  0.7510 -0.0744  0.0308
  0.0520 -0.0063 -0.0744  0.8701  0.0164
 -0.0403  0.0033  0.0308  0.0164  0.8906
 
spin component  2
 
  0.1376 -0.0109 -0.0404 -0.0167  0.0161
 -0.0109  0.0850  0.0025  0.0086  0.0023
 -0.0404  0.0025  0.1420  0.0216 -0.0105
 -0.0167  0.0086  0.0216  0.0964 -0.0047
  0.0161  0.0023 -0.0105 -0.0047  0.0889
 
 occupancies and eigenvectors
 
  o =  0.0758  v =  0.0000  0.0000  0.0000  0.0000  0.0000  0.2626  0.7355  0.1911 -0.3968 -0.4428      0.0000  0.0000  0.0000  0.0000  0.0000  0.0000  0.0000  0.0000  0.0000  0.0000
  o =  0.0856  v =  0.0000  0.0000  0.0000  0.0000  0.0000 -0.2291  0.2119  0.1736 -0.5320  0.7677      0.0000  0.0000  0.0000  0.0000  0.0000  0.0000  0.0000  0.0000  0.0000  0.0000
  o =  0.0935  v =  0.0000  0.0000  0.0000  0.0000  0.0000  0.1389  0.5871 -0.1357  0.6852  0.3849      0.0000  0.0000  0.0000  0.0000  0.0000  0.0000  0.0000  0.0000  0.0000  0.0000
  o =  0.1021  v =  0.0000  0.0000  0.0000  0.0000  0.0000  0.6613 -0.2440  0.6767  0.1053  0.1846      0.0000  0.0000  0.0000  0.0000  0.0000  0.0000  0.0000  0.0000  0.0000  0.0000
[...]
  0.067  -0.099  -0.043   0.000  -0.007   0.017   0.000   0.003  -0.008   0.000   0.014   0.000  -0.055   0.015   0.000  -0.020
  0.036  -0.057  -0.007   0.000  -0.013   0.002   0.000   0.008   0.011   0.000   0.030   0.000   0.002  -0.014   0.000  -0.039
  0.000   0.000   0.000   0.029   0.000   0.000  -0.012   0.000   0.000   0.068   0.000  -0.008   0.000   0.000  -0.089   0.000
  0.021  -0.032  -0.007   0.000   0.009   0.004   0.000  -0.005   0.033   0.000   0.006   0.000   0.027  -0.044   0.000  -0.008
  0.000   0.000   0.000   0.018   0.000   0.000  -0.008   0.000   0.000   0.008   0.000  -0.029   0.000   0.000  -0.010   0.000
 -0.052   0.078   0.012   0.000   0.000  -0.006   0.000   0.000   0.005   0.000  -0.021   0.000   0.024  -0.008   0.000   0.028
  0.000   0.000   0.000  -0.002   0.000   0.000  -0.001   0.000   0.000   0.007   0.000  -0.010   0.000   0.000  -0.008   0.000
  0.053  -0.078  -0.030   0.000  -0.005   0.012   0.000   0.003  -0.007   0.000   0.012   0.000  -0.041   0.013   0.000  -0.017
 total augmentation occupancy for first ion, spin component:           2
  0.005  -0.010   0.000   0.000  -0.001   0.000   0.000   0.000   0.001   0.000   0.000   0.000  -0.001  -0.001   0.000   0.000
 -0.010   0.018   0.000   0.000   0.001   0.000   0.000   0.000  -0.002   0.000   0.000   0.000   0.002   0.001   0.000   0.000
  0.000   0.000   0.000   0.000   0.000   0.000   0.000   0.000  -0.001   0.000   0.001   0.000  -0.001   0.000   0.000   0.000
  0.000   0.000   0.000   0.000   0.000   0.000   0.000   0.000   0.000   0.001   0.000  -0.001   0.000   0.000   0.000   0.000
 -0.001   0.001   0.000   0.000   0.000   0.000   0.000   0.000  -0.001   0.000   0.000   0.000   0.002   0.001   0.000   0.000
  0.000   0.000   0.000   0.000   0.000   0.000   0.000   0.000   0.000   0.000  -0.001   0.000   0.000   0.000   0.000   0.000
  0.000   0.000   0.000   0.000   0.000   0.000   0.000   0.000   0.000  -0.001   0.000   0.001   0.000   0.000   0.000   0.000
  0.000   0.000   0.000   0.000   0.000   0.000   0.000   0.000   0.000   0.000   0.000   0.000  -0.001   0.000   0.000   0.000
  0.001  -0.002  -0.001   0.000  -0.001   0.000   0.000   0.000   0.004   0.000   0.001   0.000  -0.001  -0.003   0.000  -0.001
  0.000   0.000   0.000   0.001   0.000   0.000  -0.001   0.000   0.000   0.001   0.000  -0.003   0.000   0.000   0.000   0.000
  0.000   0.000   0.001   0.000   0.000  -0.001   0.000   0.000   0.001   0.000   0.004   0.000   0.001   0.000   0.000  -0.002
  0.000   0.000   0.000  -0.001   0.000   0.000   0.001   0.000   0.000  -0.003   0.000   0.003   0.000   0.000   0.002   0.000
 -0.001   0.002  -0.001   0.000   0.002   0.000   0.000  -0.001  -0.001   0.000   0.001   0.000   0.003   0.000   0.000   0.000
 -0.001   0.001   0.000   0.000   0.001   0.000   0.000   0.000  -0.003   0.000   0.000   0.000   0.000   0.002   0.000   0.000
  0.000   0.000   0.000   0.000   0.000   0.000   0.000   0.000   0.000   0.000   0.000   0.002   0.000   0.000   0.000   0.000
  0.000   0.000   0.000   0.000   0.000   0.000   0.000   0.000  -0.001   0.000  -0.002   0.000   0.000   0.000   0.000   0.001
  0.000   0.000   0.000   0.000   0.000   0.000   0.000   0.000   0.000   0.002   0.000   0.000   0.000   0.000  -0.001   0.000
  0.000  -0.001   0.000   0.000   0.000   0.000   0.000   0.000   0.000   0.000   0.000   0.000  -0.001   0.000   0.000   0.000
  0.000   0.000  -0.001   0.000   0.000   0.001   0.000   0.000   0.000   0.000   0.001   0.000   0.000   0.000   0.000  -0.001
  0.000   0.000   0.000   0.001   0.000   0.000   0.000   0.000   0.000   0.001   0.000   0.000   0.000   0.000  -0.001   0.000
  0.001  -0.002   0.001   0.000   0.001  -0.001   0.000  -0.001   0.000   0.000  -0.001   0.000   0.004   0.000   0.000   0.001
  0.000   0.000   0.000  -0.001   0.000   0.000   0.000   0.000   0.000   0.002   0.000   0.000   0.000   0.000  -0.001   0.000
 -0.002   0.004   0.001   0.000   0.000   0.000   0.000   0.000   0.000   0.000   0.001   0.000   0.000   0.000   0.000  -0.001
  0.000   0.000   0.000   0.001   0.000   0.000   0.000   0.000   0.000   0.002   0.000   0.000   0.000   0.000   0.000   0.000
  0.003  -0.004   0.000   0.000   0.000   0.000   0.000   0.000   0.001   0.000  -0.002   0.000   0.000  -0.001   0.000   0.001
  0.000   0.000  -0.001   0.000   0.000   0.000   0.000   0.000   0.000   0.000   0.001   0.000   0.000   0.000   0.000   0.000
  0.000   0.000   0.000   0.000   0.000   0.000   0.000   0.000   0.000   0.001   0.000   0.000   0.000   0.000   0.000   0.000
  0.001  -0.001   0.000   0.000   0.001   0.000   0.000   0.000   0.000   0.000   0.000   0.000   0.002   0.000   0.000   0.000
  0.000   0.000   0.000   0.000   0.000   0.000   0.000   0.000   0.000   0.001   0.000   0.000   0.000   0.000   0.000   0.000
 -0.001   0.002   0.000   0.000   0.000   0.000   0.000   0.000   0.000   0.000   0.001   0.000   0.000   0.000   0.000   0.000
  0.000   0.000   0.000   0.001   0.000   0.000   0.000   0.000   0.000   0.001   0.000   0.000   0.000   0.000   0.000   0.000
  0.002  -0.003   0.000   0.000   0.000   0.000   0.000   0.000   0.001   0.000  -0.001   0.000   0.000  -0.001   0.000   0.001


------------------------ aborting loop because EDIFF is reached ----------------------------------------


 


 total charge     
 
# of ion     s       p       d       f       tot
------------------------------------------------
  1        2.012   5.704   0.580   0.223   8.518
  2        2.012   5.703   0.580   0.223   8.518
  3        2.012   5.703   0.580   0.223   8.518
  4        2.012   5.704   0.580   0.223   8.518
  5        0.282   6.328   4.776   0.000  11.386
  6        0.284   6.325   4.850   0.000  11.458
  7        0.283   6.328   4.778   0.000  11.389
  8        0.284   6.325   4.849   0.000  11.457
  9        1.855   4.394   0.000   0.000   6.249
 10        1.855   4.397   0.000   0.000   6.252
 11        1.854   4.393   0.000   0.000   6.247
 12        1.856   4.427   0.000   0.000   6.283
 13        1.854   4.392   0.000   0.000   6.246
 14        1.854   4.392   0.000   0.000   6.246
 15        1.854   4.406   0.000   0.000   6.259
 16        1.855   4.394   0.000   0.000   6.249
 17        1.856   4.427   0.000   0.000   6.283
 18        1.854   4.406   0.000   0.000   6.259
 19        1.854   4.393   0.000   0.000   6.247
 20        1.855   4.397   0.000   0.000   6.252
------------------------------------------------
tot       31.435 100.936  21.571   0.892 154.833

 


 magnetization (x)
 
# of ion     s       p       d       f       tot
------------------------------------------------
  1        0.001   0.000   0.008   0.008   0.018
  2        0.001   0.000   0.008   0.007   0.017
  3        0.001   0.000   0.008   0.007   0.017
  4        0.001   0.000   0.008   0.008   0.018
  5        0.024   0.029   3.790   0.000   3.843
  6        0.025   0.025   3.861   0.000   3.910
  7        0.025   0.028   3.792   0.000   3.845
  8        0.025   0.025   3.861   0.000   3.910
  9        0.007  -0.013   0.000   0.000  -0.006
 10        0.007  -0.012   0.000   0.000  -0.004
 11        0.005   0.003   0.000   0.000   0.008
 12        0.003  -0.019   0.000   0.000  -0.016
 13        0.005   0.003   0.000   0.000   0.008
 14        0.005   0.003   0.000   0.000   0.008
 15        0.001  -0.040   0.000   0.000  -0.039
 16        0.007  -0.013   0.000   0.000  -0.006
 17        0.003  -0.019   0.000   0.000  -0.016
 18        0.001  -0.040   0.000   0.000  -0.039
 19        0.005   0.003   0.000   0.000   0.008
 20        0.007  -0.012   0.000   0.000  -0.004
------------------------------------------------
tot        0.159  -0.047  15.336   0.031  15.479

 
    CHARGE:  cpu time    1.2278: real time    1.2323
    FORLOC:  cpu time    0.0250: real time    0.0245
    FORNL :  cpu time   12.8650: real time   12.9101
    STRESS:  cpu time   38.7581: real time   38.9335
    FORCOR:  cpu time    1.2978: real time    1.3024
    FORHAR:  cpu time    0.0880: real time    0.0881
    MIXING:  cpu time    0.0230: real time    0.0224
    OFIELD:  cpu time    0.0000: real time    0.0001

  FORCE on cell =-STRESS in cart. coord.  units (eV):
  Direction    XX          YY          ZZ          XY          YZ          ZX
  --------------------------------------------------------------------------------------
  Alpha Z   897.56129   897.56129   897.56129
  Ewald   -4126.89267 -4556.46034 -4087.63178     0.00000     0.00000     0.00000
  Hartree  1411.50891  1213.76980  1503.41669     0.00000     0.00000     0.00000
  E(xc)    -833.16707  -833.98106  -833.49800     0.00000     0.00000     0.00000
  Local    -427.32478   180.49221  -559.90317     0.00000     0.00000     0.00000
  n-local   266.56761   267.75056   269.42111    -0.09889    -0.03529    -0.12705
  augment   413.17563   422.11182   414.78571     0.00000     0.00000     0.00000
  Kinetic  2398.51253  2408.87799  2395.65161     0.20199    -0.07485    -0.16361
  Fock        0.00000     0.00000     0.00000     0.00000     0.00000     0.00000
  -------------------------------------------------------------------------------------
  Total      -0.05854     0.12227    -0.19654     0.00000     0.00000     0.00000
  in kB      -0.36971     0.77217    -1.24127     0.00000     0.00000     0.00000
  external pressure =       -0.28 kB  Pullay stress =        0.00 kB


 VOLUME and BASIS-vectors are now :
 -----------------------------------------------------------------------------
  energy-cutoff  :      520.00
  volume of cell :      253.69
      direct lattice vectors                 reciprocal lattice vectors
     5.588824668  0.000000000  0.000000000     0.178928497  0.000000000  0.000000000
     0.000000000  5.830076612  0.000000000     0.000000000  0.171524333  0.000000000
     0.000000000  0.000000000  7.785916395     0.000000000  0.000000000  0.128437033

  length of vectors
     5.588824668  5.830076612  7.785916395     0.178928497  0.171524333  0.128437033


 FORCES acting on ions
    electron-ion (+dipol)            ewald-force                    non-local-force                 convergence-correction
 -----------------------------------------------------------------------------------------------
   0.213E+02 0.595E+02 0.138E-06   -.212E+02 -.594E+02 -.568E-13   -.899E-01 -.291E-01 -.867E-18   0.547E-03 -.963E-05 0.116E-12
   0.213E+02 -.595E+02 -.138E-06   -.212E+02 0.594E+02 -.284E-13   -.899E-01 0.291E-01 0.000E+00   0.547E-03 0.963E-05 -.861E-13
   -.213E+02 0.595E+02 0.138E-06   0.212E+02 -.594E+02 0.000E+00   0.899E-01 -.291E-01 0.000E+00   -.547E-03 -.963E-05 0.943E-13
   -.213E+02 -.595E+02 -.138E-06   0.212E+02 0.594E+02 0.711E-13   0.899E-01 0.291E-01 0.867E-18   -.547E-03 0.963E-05 -.807E-13
   -.488E-11 -.301E-11 -.105E-11   -.124E-13 0.995E-13 -.110E-12   0.000E+00 0.000E+00 0.000E+00   -.640E-13 -.158E-12 0.158E-12
   0.102E-10 0.395E-10 -.111E-10   0.220E-12 -.151E-12 0.924E-13   0.000E+00 0.000E+00 0.000E+00   0.151E-12 -.221E-12 0.980E-13
   -.700E-11 0.360E-10 0.491E-11   -.142E-13 0.142E-12 0.711E-14   0.000E+00 0.000E+00 0.000E+00   0.807E-13 -.268E-12 0.138E-12
   -.987E-11 -.962E-11 -.441E-11   0.199E-12 -.199E-12 0.000E+00   0.000E+00 0.000E+00 0.000E+00   -.813E-14 -.247E-12 0.130E-12
   0.704E+02 -.193E+02 -.223E+02   -.763E+02 0.246E+02 0.221E+02   0.588E+01 -.535E+01 0.202E+00   -.493E-03 -.756E-03 0.165E-02
   -.704E+02 0.193E+02 -.223E+02   0.763E+02 -.246E+02 0.221E+02   -.588E+01 0.535E+01 0.202E+00   0.493E-03 0.756E-03 0.165E-02
   -.704E+02 -.193E+02 -.223E+02   0.763E+02 0.246E+02 0.221E+02   -.588E+01 -.535E+01 0.202E+00   0.493E-03 -.756E-03 0.165E-02
   0.590E+02 -.126E+02 -.133E-06   -.611E+02 0.143E+02 0.176E-11   0.205E+01 -.167E+01 0.000E+00   -.110E-02 -.904E-03 0.331E-14
   0.704E+02 0.193E+02 -.223E+02   -.763E+02 -.246E+02 0.221E+02   0.588E+01 0.535E+01 0.202E+00   -.493E-03 0.756E-03 0.165E-02
   -.704E+02 -.193E+02 0.223E+02   0.763E+02 0.246E+02 -.221E+02   -.588E+01 -.535E+01 -.202E+00   0.493E-03 -.756E-03 -.165E-02
   0.590E+02 0.126E+02 -.366E-06   -.611E+02 -.143E+02 -.618E-12   0.205E+01 0.167E+01 0.000E+00   -.110E-02 0.904E-03 -.882E-13
   -.704E+02 0.193E+02 0.223E+02   0.763E+02 -.246E+02 -.221E+02   -.588E+01 0.535E+01 -.202E+00   0.493E-03 0.756E-03 -.165E-02
   -.590E+02 0.126E+02 0.133E-06   0.611E+02 -.143E+02 0.831E-12   -.205E+01 0.167E+01 0.000E+00   0.110E-02 0.904E-03 -.829E-13
   -.590E+02 -.126E+02 0.366E-06   0.611E+02 0.143E+02 0.183E-11   -.205E+01 -.167E+01 0.000E+00   0.110E-02 -.904E-03 0.107E-13
   0.704E+02 0.193E+02 0.223E+02   -.763E+02 -.246E+02 -.221E+02   0.588E+01 0.535E+01 -.202E+00   -.493E-03 0.756E-03 -.165E-02
   0.704E+02 -.193E+02 0.223E+02   -.763E+02 0.246E+02 -.221E+02   0.588E+01 -.535E+01 -.202E+00   -.493E-03 -.756E-03 -.165E-02
 -----------------------------------------------------------------------------------------------
   -.402E-10 0.638E-09 -.762E-10   0.995E-13 0.568E-13 -.320E-13   0.000E+00 -.888E-15 0.000E+00   0.298E-12 -.137E-11 0.508E-12
 
 
 POSITION                                       TOTAL-FORCE (eV/Angst)
 -----------------------------------------------------------------------------------
      0.06102      3.23180      1.94648        -0.000069      0.031423      0.000000
      2.85543      5.51331      5.83944        -0.000069     -0.031423      0.000000
      2.73339      0.31677      1.94648         0.000069      0.031423      0.000000
      5.52780      2.59827      5.83944         0.000069     -0.031423      0.000000
      2.79441      2.91504      3.89296         0.000000      0.000000      0.000000
      0.00000      0.00000      3.89296         0.000000      0.000000      0.000000
      2.79441      2.91504      0.00000         0.000000      0.000000      0.000000
      0.00000      0.00000      0.00000         0.000000      0.000000      0.000000
      4.03361      1.12494      4.24005        -0.025275     -0.026539     -0.011656
      1.55521      4.70514      0.34710         0.025275      0.026539     -0.011656
      4.34963      4.03998      4.24005         0.025275     -0.026539     -0.011656
      5.10415      5.71425      1.94648         0.000230     -0.000978      0.000000
      1.23920      1.79010      0.34710        -0.025275      0.026539     -0.011656
      4.34963      4.03998      7.43882         0.025275     -0.026539      0.011656
      2.30974      3.03086      5.83944         0.000230      0.000978      0.000000
      1.55521      4.70514      3.54586         0.025275      0.026539      0.011656
      0.48467      0.11582      5.83944        -0.000230      0.000978      0.000000
      3.27908      2.79921      1.94648        -0.000230     -0.000978      0.000000
      1.23920      1.79010      3.54586        -0.025275      0.026539      0.011656
      4.03361      1.12494      7.43882        -0.025275     -0.026539      0.011656
 -----------------------------------------------------------------------------------
    total drift:                                0.000000      0.000000      0.000000


--------------------------------------------------------------------------------------------------------



  FREE ENERGIE OF THE ION-ELECTRON SYSTEM (eV)
  ---------------------------------------------------
  free  energy   TOTEN  =      -160.31000909 eV

  energy  without entropy=     -160.31000909  energy(sigma->0) =     -160.31000909
 


--------------------------------------------------------------------------------------------------------


    POTLOK:  cpu time    1.4338: real time    1.4364


--------------------------------------------------------------------------------------------------------


 stress matrix after NEB project (eV)
     -0.05854      0.00000      0.00000
      0.00000      0.12227      0.00000
      0.00000      0.00000     -0.19654
  FORCES: max atom, RMS     0.038458    0.028094
  FORCE total and by dimension    0.125641    0.031423
  Stress total and by dimension    0.238759    0.196545
 Quasi-Newton relaxation of ions (Broydens 2nd method)
  g(Force)  = 0.762E-03   g(Stress)= 0.138E-03

 Reset! Starting new Quasi-Newton update for ions 


--------------------------------------------------------------------------------------------------------


  
 reached required accuracy - stopping structural energy minimisation
     LOOP+:  cpu time 1177.0541: real time 1181.7563
    4ORBIT:  cpu time    0.0000: real time    0.0000
 


 total charge     
 
# of ion     s       p       d       f       tot
------------------------------------------------
  1        2.012   5.704   0.580   0.223   8.518
  2        2.012   5.703   0.580   0.223   8.518
  3        2.012   5.703   0.580   0.223   8.518
  4        2.012   5.704   0.580   0.223   8.518
  5        0.282   6.328   4.776   0.000  11.386
  6        0.284   6.325   4.850   0.000  11.458
  7        0.283   6.328   4.778   0.000  11.389
  8        0.284   6.325   4.849   0.000  11.457
  9        1.855   4.394   0.000   0.000   6.249
 10        1.855   4.397   0.000   0.000   6.252
 11        1.854   4.393   0.000   0.000   6.247
 12        1.856   4.427   0.000   0.000   6.283
 13        1.854   4.392   0.000   0.000   6.246
 14        1.854   4.392   0.000   0.000   6.246
 15        1.854   4.406   0.000   0.000   6.259
 16        1.855   4.394   0.000   0.000   6.249
 17        1.856   4.427   0.000   0.000   6.283
 18        1.854   4.406   0.000   0.000   6.259
 19        1.854   4.393   0.000   0.000   6.247
 20        1.855   4.397   0.000   0.000   6.252
------------------------------------------------
tot       31.435 100.936  21.571   0.892 154.833

 


 magnetization (x)
 
# of ion     s       p       d       f       tot
------------------------------------------------
  1        0.001   0.000   0.008   0.008   0.018
  2        0.001   0.000   0.008   0.007   0.017
  3        0.001   0.000   0.008   0.007   0.017
  4        0.001   0.000   0.008   0.008   0.018
  5        0.024   0.029   3.790   0.000   3.843
  6        0.025   0.025   3.861   0.000   3.910
  7        0.025   0.028   3.792   0.000   3.845
  8        0.025   0.025   3.861   0.000   3.910
  9        0.007  -0.013   0.000   0.000  -0.006
 10        0.007  -0.012   0.000   0.000  -0.004
 11        0.005   0.003   0.000   0.000   0.008
 12        0.003  -0.019   0.000   0.000  -0.016
 13        0.005   0.003   0.000   0.000   0.008
 14        0.005   0.003   0.000   0.000   0.008
 15        0.001  -0.040   0.000   0.000  -0.039
 16        0.007  -0.013   0.000   0.000  -0.006
 17        0.003  -0.019   0.000   0.000  -0.016
 18        0.001  -0.040   0.000   0.000  -0.039
 19        0.005   0.003   0.000   0.000   0.008
 20        0.007  -0.012   0.000   0.000  -0.004
------------------------------------------------
tot        0.159  -0.047  15.336   0.031  15.479

 
 BZINTS: Fermi energy:  6.250257;168.000000 electrons
         Band energy:***********;  BLOECHL correction:  0.000000

 total amount of memory used by VASP on root node   104461. kBytes
========================================================================

   base      :      30000. kBytes
   nonlr-proj:      19210. kBytes
   fftplans  :       4778. kBytes
   grid      :      21044. kBytes
   one-center:       1966. kBytes
   wavefun   :      27463. kBytes
 
  
  
 General timing and accounting informations for this job:
 ========================================================
  
                  Total CPU time used (sec):     1189.935
                            User time (sec):     1188.237
                          System time (sec):        1.698
                         Elapsed time (sec):     1195.096
  
                   Maximum memory used (kb):      142880.
                   Average memory used (kb):           0.
  
                          Minor page faults:        24005
                          Major page faults:            9
                 Voluntary context switches:         4253
