unknown system                          
           1
     5.588825    0.000000    0.000000
     0.000000    5.830077    0.000000
     0.000000    0.000000    7.785916
   La   Mn   O 
   4   4  12
Direct configuration=     1
   0.01091859  0.55433297  0.25000000
   0.51091859  0.94566703  0.75000000
   0.48908141  0.05433297  0.25000000
   0.98908141  0.44566703  0.75000000
   0.50000000  0.50000000  0.50000000
   0.00000000  0.00000000  0.50000000
   0.50000000  0.50000000  0.00000000
   0.00000000  0.00000000  0.00000000
   0.72172807  0.19295447  0.54457996
   0.27827193  0.80704553  0.04457996
   0.77827193  0.69295447  0.54457996
   0.91327849  0.98013347  0.25000000
   0.22172807  0.30704553  0.04457996
   0.77827193  0.69295447  0.95542004
   0.41327849  0.51986653  0.75000000
   0.27827193  0.80704553  0.45542004
   0.08672151  0.01986653  0.75000000
   0.58672151  0.48013347  0.25000000
   0.22172807  0.30704553  0.45542004
   0.72172807  0.19295447  0.95542004
