unknown system                          
   1.00000000000000     
     3.750000    0.000000    0.000000
     0.000000    3.750000    0.000000
     0.000000    0.000000    3.750000
   Sr   Fe   O 
     1     1     3
Direct
  0.500000  0.500000  0.500000
  0.000000  0.000000  0.000000
  0.500000  0.000000  0.000000
  0.000000  0.500000  0.000000
  0.000000  0.000000  0.500000
 
   32   32   32
  1077.8      1022.5      868.85      652.14      422.65      230.21      105.74      50.548      40.966      48.411    
  69.070      109.80      174.01      256.35      340.84      405.03      429.08      405.03      340.84      256.35    
  174.01      109.80      69.070      48.411      40.966      50.548      105.74      230.21      422.65      652.14    
  868.85      1022.5      1022.5      969.26      821.77      614.44      396.05      214.30      98.109      47.681    
  39.505      46.630      66.097      104.51      165.37      243.75      324.46      385.92      408.97      385.92    
  324.46      243.75      165.37      104.51      66.097      46.630      39.505      47.681      98.109      214.30    
  396.05      614.44      821.77      969.26      868.85      821.77      691.97      511.44      324.29      172.17    
  78.441      40.496      35.511      41.789      58.117      90.235      141.76      208.99      278.91      332.52    
  352.69      332.52      278.91      208.99      141.76      90.235      58.117      41.789      35.511      40.496    
  78.441      172.17      324.29      511.44      691.97      821.77      652.14      614.44      511.44      370.69    
  228.81      118.27      54.733      32.187      29.950      35.085      47.482      71.103      109.53      160.64    
  214.67      256.55      272.39      256.55      214.67      160.64      109.53      71.103      47.482      35.085    
  29.950      32.187      54.733      118.27      228.81      370.69      511.44      614.44      422.65      396.05    
  324.29      228.81      136.64      69.627      35.341      25.215      24.015      27.862      36.731      52.098    
  76.916      110.59      146.91      175.48      186.36      175.48      146.91      110.59      76.916      52.098    
  36.731      27.862      24.015      25.215      35.341      69.627      136.64      228.81      324.29      396.05    
  230.21      214.30      172.17      118.27      69.627      37.933      24.162      19.572      18.720      21.302    
  27.273      36.726      50.701      69.571      90.261      106.78      113.14      106.78      90.261      69.571    
  50.701      36.726      27.273      21.302      18.720      19.572      24.162      37.933      69.627      118.27    
  172.17      214.30      105.74      98.109      78.441      54.733      35.341      24.162      18.495      15.380    
  14.642      16.092      19.685      25.435      33.104      42.429      52.398      60.373      63.451      60.373    
  52.398      42.429      33.104      25.435      19.685      16.092      14.642      15.380      18.495      24.162    
  35.341      54.733      78.441      98.109      50.548      47.681      40.496      32.187      25.215      19.572    
  15.380      12.866      11.926      12.402      14.231      17.379      21.665      26.590      31.303      34.814    
  36.137      34.814      31.303      26.590      21.665      17.379      14.231      12.402      11.926      12.866    
  15.380      19.572      25.215      32.187      40.496      47.681      40.966      39.505      35.511      29.950    
  24.015      18.720      14.642      11.926      10.459      10.073      10.649      12.091      14.236      16.771    
  19.213      20.995      21.650      20.995      19.213      16.771      14.236      12.091      10.649      10.073    
  10.459      11.926      14.642      18.720      24.015      29.950      35.511      39.505      48.411      46.630    
  41.789      35.085      27.862      21.302      16.092      12.402      10.073      8.8452      8.4920      8.8348    
  9.6940      10.842      11.995      12.850      13.165      12.850      11.995      10.842      9.6940      8.8348    
  8.4920      8.8452      10.073      12.402      16.092      21.302      27.862      35.085      41.789      46.630    
  69.070      66.097      58.117      47.482      36.731      27.273      19.685      14.231      10.649      8.4920    
  7.3580      6.9477      7.0266      7.3896      7.8448      8.2129      8.3539      8.2129      7.8448      7.3896    
  7.0266      6.9477      7.3580      8.4920      10.649      14.231      19.685      27.273      36.731      47.482    
  58.117      66.097      109.80      104.51      90.235      71.103      52.098      36.726      25.435      17.379    
  12.091      8.8348      6.9477      5.9535      5.5201      5.4183      5.4899      5.6070      5.6613      5.6070    
  5.4899      5.4183      5.5201      5.9535      6.9477      8.8348      12.091      17.379      25.435      36.726    
  52.098      71.103      90.235      104.51      174.01      165.37      141.76      109.53      76.916      50.701    
  33.104      21.665      14.236      9.6940      7.0266      5.5201      4.7028      4.2876      4.1213      4.0955    
  4.1039      4.0955      4.1213      4.2876      4.7028      5.5201      7.0266      9.6940      14.236      21.665    
  33.104      50.701      76.916      109.53      141.76      165.37      256.35      243.75      208.99      160.64    
  110.59      69.571      42.429      26.590      16.771      10.842      7.3896      5.4183      4.2876      3.6335    
  3.2946      3.1720      3.1513      3.1720      3.2946      3.6335      4.2876      5.4183      7.3896      10.842    
  16.771      26.590      42.429      69.571      110.59      160.64      208.99      243.75      340.84      324.46    
  278.91      214.67      146.91      90.261      52.398      31.303      19.213      11.995      7.8448      5.4899    
  4.1213      3.2946      2.8347      2.6477      2.6087      2.6477      2.8347      3.2946      4.1213      5.4899    
  7.8448      11.995      19.213      31.303      52.398      90.261      146.91      214.67      278.91      324.46    
  405.03      385.92      332.52      256.55      175.48      106.78      60.373      34.814      20.995      12.850    
  8.2129      5.6070      4.0955      3.1720      2.6477      2.4290      2.3819      2.4290      2.6477      3.1720    
  4.0955      5.6070      8.2129      12.850      20.995      34.814      60.373      106.78      175.48      256.55    
  332.52      385.92      429.08      408.97      352.69      272.39      186.36      113.14      63.451      36.137    
  21.650      13.165      8.3539      5.6613      4.1039      3.1513      2.6087      2.3819      2.3331      2.3819    
  2.6087      3.1513      4.1039      5.6613      8.3539      13.165      21.650      36.137      63.451      113.14    
  186.36      272.39      352.69      408.97      405.03      385.92      332.52      256.55      175.48      106.78    
  60.373      34.814      20.995      12.850      8.2129      5.6070      4.0955      3.1720      2.6477      2.4290    
  2.3819      2.4290      2.6477      3.1720      4.0955      5.6070      8.2129      12.850      20.995      34.814    
  60.373      106.78      175.48      256.55      332.52      385.92      340.84      324.46      278.91      214.67    
  146.91      90.261      52.398      31.303      19.213      11.995      7.8448      5.4899      4.1213      3.2946    
  2.8347      2.6477      2.6087      2.6477      2.8347      3.2946      4.1213      5.4899      7.8448      11.995    
  19.213      31.303      52.398      90.261      146.91      214.67      278.91      324.46      256.35      243.75    
  208.99      160.64      110.59      69.571      42.429      26.590      16.771      10.842      7.3896      5.4183    
  4.2876      3.6335      3.2946      3.1720      3.1513      3.1720      3.2946      3.6335      4.2876      5.4183    
  7.3896      10.842      16.771      26.590      42.429      69.571      110.59      160.64      208.99      243.75    
  174.01      165.37      141.76      109.53      76.916      50.701      33.104      21.665      14.236      9.6940    
  7.0266      5.5201      4.7028      4.2876      4.1213      4.0955      4.1039      4.0955      4.1213      4.2876    
  4.7028      5.5201      7.0266      9.6940      14.236      21.665      33.104      50.701      76.916      109.53    
  141.76      165.37      109.80      104.51      90.235      71.103      52.098      36.726      25.435      17.379    
  12.091      8.8348      6.9477      5.9535      5.5201      5.4183      5.4899      5.6070      5.6613      5.6070    
  5.4899      5.4183      5.5201      5.9535      6.9477      8.8348      12.091      17.379      25.435      36.726    
  52.098      71.103      90.235      104.51      69.070      66.097      58.117      47.482      36.731      27.273    
  19.685      14.231      10.649      8.4920      7.3580      6.9477      7.0266      7.3896      7.8448      8.2129    
  8.3539      8.2129      7.8448      7.3896      7.0266      6.9477      7.3580      8.4920      10.649      14.231    
  19.685      27.273      36.731      47.482      58.117      66.097      48.411      46.630      41.789      35.085    
  27.862      21.302      16.092      12.402      10.073      8.8452      8.4920      8.8348      9.6940      10.842    
  11.995      12.850      13.165      12.850      11.995      10.842      9.6940      8.8348      8.4920      8.8452    
  10.073      12.402      16.092      21.302      27.862      35.085      41.789      46.630      40.966      39.505    
  35.511      29.950      24.015      18.720      14.642      11.926      10.459      10.073      10.649      12.091    
  14.236      16.771      19.213      20.995      21.650      20.995      19.213      16.771      14.236      12.091    
  10.649      10.073      10.459      11.926      14.642      18.720      24.015      29.950      35.511      39.505    
  50.548      47.681      40.496      32.187      25.215      19.572      15.380      12.866      11.926      12.402    
  14.231      17.379      21.665      26.590      31.303      34.814      36.137      34.814      31.303      26.590    
  21.665      17.379      14.231      12.402      11.926      12.866      15.380      19.572      25.215      32.187    
  40.496      47.681      105.74      98.109      78.441      54.733      35.341      24.162      18.495      15.380    
  14.642      16.092      19.685      25.435      33.104      42.429      52.398      60.373      63.451      60.373    
  52.398      42.429      33.104      25.435      19.685      16.092      14.642      15.380      18.495      24.162    
  35.341      54.733      78.441      98.109      230.21      214.30      172.17      118.27      69.627      37.933    
  24.162      19.572      18.720      21.302      27.273      36.726      50.701      69.571      90.261      106.78    
  113.14      106.78      90.261      69.571      50.701      36.726      27.273      21.302      18.720      19.572    
  24.162      37.933      69.627      118.27      172.17      214.30      422.65      396.05      324.29      228.81    
  136.64      69.627      35.341      25.215      24.015      27.862      36.731      52.098      76.916      110.59    
  146.91      175.48      186.36      175.48      146.91      110.59      76.916      52.098      36.731      27.862    
  24.015      25.215      35.341      69.627      136.64      228.81      324.29      396.05      652.14      614.44    
  511.44      370.69      228.81      118.27      54.733      32.187      29.950      35.085      47.482      71.103    
  109.53      160.64      214.67      256.55      272.39      256.55      214.67      160.64      109.53      71.103    
  47.482      35.085      29.950      32.187      54.733      118.27      228.81      370.69      511.44      614.44    
  868.85      821.77      691.97      511.44      324.29      172.17      78.441      40.496      35.511      41.789    
  58.117      90.235      141.76      208.99      278.91      332.52      352.69      332.52      278.91      208.99    
  141.76      90.235      58.117      41.789      35.511      40.496      78.441      172.17      324.29      511.44    
  691.97      821.77      1022.5      969.26      821.77      614.44      396.05      214.30      98.109      47.681    
  39.505      46.630      66.097      104.51      165.37      243.75      324.46      385.92      408.97      385.92    
  324.46      243.75      165.37      104.51      66.097      46.630      39.505      47.681      98.109      214.30    
  396.05      614.44      821.77      969.26      1022.5      969.26      821.77      614.44      396.05      214.30    
  98.109      47.681      39.505      46.630      66.097      104.51      165.37      243.75      324.46      385.92    
  408.97      385.92      324.46      243.75      165.37      104.51      66.097      46.630      39.505      47.681    
  98.109      214.30      396.05      614.44      821.77      969.26      969.26      918.12      776.64      578.46    
  370.82      199.35      91.030      45.060      38.111      44.936      63.286      99.497      157.12      231.66    
  308.68      367.46      389.53      367.46      308.68      231.66      157.12      99.497      63.286      44.936    
  38.111      45.060      91.030      199.35      370.82      578.46      776.64      918.12      821.77      776.64    
  652.46      480.34      302.90      159.84      72.850      38.500      34.289      40.323      55.744      85.971    
  134.64      198.39      264.92      316.04      335.29      316.04      264.92      198.39      134.64      85.971    
  55.744      40.323      34.289      38.500      72.850      159.84      302.90      480.34      652.46      776.64    
  614.44      578.46      480.34      346.76      212.89      109.57      51.076      30.908      28.966      33.907    
  45.691      67.896      104.06      152.33      203.51      243.25      258.31      243.25      203.51      152.33    
  104.06      67.896      45.691      33.907      28.966      30.908      51.076      109.57      212.89      346.76    
  480.34      578.46      396.05      370.82      302.90      212.89      126.62      64.584      33.443      24.413    
  23.283      26.987      35.487      49.983      73.272      104.92      139.14      166.10      176.38      166.10    
  139.14      104.92      73.272      49.983      35.487      26.987      23.283      24.413      33.443      64.584    
  126.62      212.89      302.90      370.82      214.30      199.35      159.84      109.57      64.584      35.690    
  23.327      19.004      18.208      20.696      26.427      35.461      48.617      66.297      85.688      101.19    
  107.15      101.19      85.688      66.297      48.617      35.461      26.427      20.696      18.208      19.004    
  23.327      35.690      64.584      109.57      159.84      199.35      98.109      91.030      72.850      51.076    
  33.443      23.327      17.962      14.988      14.293      15.691      19.143      24.660      32.004      40.813    
  50.162      57.623      60.502      57.623      50.162      40.813      32.004      24.660      19.143      15.691    
  14.293      14.988      17.962      23.327      33.443      51.076      72.850      91.030      47.681      45.060    
  38.500      30.908      24.413      19.004      14.988      12.579      11.679      12.138      13.896      16.922    
  21.039      25.768      30.283      33.620      34.871      33.620      30.283      25.768      21.039      16.922    
  13.896      12.138      11.679      12.579      14.988      19.004      24.413      30.908      38.500      45.060    
  39.505      38.111      34.289      28.966      23.283      18.208      14.293      11.679      10.262      9.8879    
  10.441      11.831      13.898      16.338      18.687      20.401      21.030      20.401      18.687      16.338    
  13.898      11.831      10.441      9.8879      10.262      11.679      14.293      18.208      23.283      28.966    
  34.289      38.111      46.630      44.936      40.323      33.907      26.987      20.696      15.691      12.138    
  9.8879      8.6983      8.3547      8.6859      9.5179      10.630      11.745      12.571      12.876      12.571    
  11.745      10.630      9.5179      8.6859      8.3547      8.6983      9.8879      12.138      15.691      20.696    
  26.987      33.907      40.323      44.936      66.097      63.286      55.744      45.691      35.487      26.427    
  19.143      13.896      10.441      8.3547      7.2555      6.8582      6.9372      7.2932      7.7385      8.0978    
  8.2353      8.0978      7.7385      7.2932      6.9372      6.8582      7.2555      8.3547      10.441      13.896    
  19.143      26.427      35.487      45.691      55.744      63.286      104.51      99.497      85.971      67.896    
  49.983      35.461      24.660      16.922      11.831      8.6859      6.8582      5.8943      5.4764      5.3825    
  5.4574      5.5746      5.6286      5.5746      5.4574      5.3825      5.4764      5.8943      6.8582      8.6859    
  11.831      16.922      24.660      35.461      49.983      67.896      85.971      99.497      165.37      157.12    
  134.64      104.06      73.272      48.617      32.004      21.039      13.898      9.5179      6.9372      5.4764    
  4.6848      4.2865      4.1305      4.1092      4.1184      4.1092      4.1305      4.2865      4.6848      5.4764    
  6.9372      9.5179      13.898      21.039      32.004      48.617      73.272      104.06      134.64      157.12    
  243.75      231.66      198.39      152.33      104.92      66.297      40.813      25.768      16.338      10.630    
  7.2932      5.3825      4.2865      3.6558      3.3322      3.2167      3.1975      3.2167      3.3322      3.6558    
  4.2865      5.3825      7.2932      10.630      16.338      25.768      40.813      66.297      104.92      152.33    
  198.39      231.66      324.46      308.68      264.92      203.51      139.14      85.688      50.162      30.283    
  18.687      11.745      7.7385      5.4574      4.1305      3.3322      2.8910      2.7127      2.6757      2.7127    
  2.8910      3.3322      4.1305      5.4574      7.7385      11.745      18.687      30.283      50.162      85.688    
  139.14      203.51      264.92      308.68      385.92      367.46      316.04      243.25      166.10      101.19    
  57.623      33.620      20.401      12.571      8.0978      5.5746      4.1092      3.2167      2.7127      2.5033    
  2.4584      2.5033      2.7127      3.2167      4.1092      5.5746      8.0978      12.571      20.401      33.620    
  57.623      101.19      166.10      243.25      316.04      367.46      408.97      389.53      335.29      258.31    
  176.38      107.15      60.502      34.871      21.030      12.876      8.2353      5.6286      4.1184      3.1975    
  2.6757      2.4584      2.4117      2.4584      2.6757      3.1975      4.1184      5.6286      8.2353      12.876    
  21.030      34.871      60.502      107.15      176.38      258.31      335.29      389.53      385.92      367.46    
  316.04      243.25      166.10      101.19      57.623      33.620      20.401      12.571      8.0978      5.5746    
  4.1092      3.2167      2.7127      2.5033      2.4584      2.5033      2.7127      3.2167      4.1092      5.5746    
  8.0978      12.571      20.401      33.620      57.623      101.19      166.10      243.25      316.04      367.46    
  324.46      308.68      264.92      203.51      139.14      85.688      50.162      30.283      18.687      11.745    
  7.7385      5.4574      4.1305      3.3322      2.8910      2.7127      2.6757      2.7127      2.8910      3.3322    
  4.1305      5.4574      7.7385      11.745      18.687      30.283      50.162      85.688      139.14      203.51    
  264.92      308.68      243.75      231.66      198.39      152.33      104.92      66.297      40.813      25.768    
  16.338      10.630      7.2932      5.3825      4.2865      3.6558      3.3322      3.2167      3.1975      3.2167    
  3.3322      3.6558      4.2865      5.3825      7.2932      10.630      16.338      25.768      40.813      66.297    
  104.92      152.33      198.39      231.66      165.37      157.12      134.64      104.06      73.272      48.617    
  32.004      21.039      13.898      9.5179      6.9372      5.4764      4.6848      4.2865      4.1305      4.1092    
  4.1184      4.1092      4.1305      4.2865      4.6848      5.4764      6.9372      9.5179      13.898      21.039    
  32.004      48.617      73.272      104.06      134.64      157.12      104.51      99.497      85.971      67.896    
  49.983      35.461      24.660      16.922      11.831      8.6859      6.8582      5.8943      5.4764      5.3825    
  5.4574      5.5746      5.6286      5.5746      5.4574      5.3825      5.4764      5.8943      6.8582      8.6859    
  11.831      16.922      24.660      35.461      49.983      67.896      85.971      99.497      66.097      63.286    
  55.744      45.691      35.487      26.427      19.143      13.896      10.441      8.3547      7.2555      6.8582    
  6.9372      7.2932      7.7385      8.0978      8.2353      8.0978      7.7385      7.2932      6.9372      6.8582    
  7.2555      8.3547      10.441      13.896      19.143      26.427      35.487      45.691      55.744      63.286    
  46.630      44.936      40.323      33.907      26.987      20.696      15.691      12.138      9.8879      8.6983    
  8.3547      8.6859      9.5179      10.630      11.745      12.571      12.876      12.571      11.745      10.630    
  9.5179      8.6859      8.3547      8.6983      9.8879      12.138      15.691      20.696      26.987      33.907    
  40.323      44.936      39.505      38.111      34.289      28.966      23.283      18.208      14.293      11.679    
  10.262      9.8879      10.441      11.831      13.898      16.338      18.687      20.401      21.030      20.401    
  18.687      16.338      13.898      11.831      10.441      9.8879      10.262      11.679      14.293      18.208    
  23.283      28.966      34.289      38.111      47.681      45.060      38.500      30.908      24.413      19.004    
  14.988      12.579      11.679      12.138      13.896      16.922      21.039      25.768      30.283      33.620    
  34.871      33.620      30.283      25.768      21.039      16.922      13.896      12.138      11.679      12.579    
  14.988      19.004      24.413      30.908      38.500      45.060      98.109      91.030      72.850      51.076    
  33.443      23.327      17.962      14.988      14.293      15.691      19.143      24.660      32.004      40.813    
  50.162      57.623      60.502      57.623      50.162      40.813      32.004      24.660      19.143      15.691    
  14.293      14.988      17.962      23.327      33.443      51.076      72.850      91.030      214.30      199.35    
  159.84      109.57      64.584      35.690      23.327      19.004      18.208      20.696      26.427      35.461    
  48.617      66.297      85.688      101.19      107.15      101.19      85.688      66.297      48.617      35.461    
  26.427      20.696      18.208      19.004      23.327      35.690      64.584      109.57      159.84      199.35    
  396.05      370.82      302.90      212.89      126.62      64.584      33.443      24.413      23.283      26.987    
  35.487      49.983      73.272      104.92      139.14      166.10      176.38      166.10      139.14      104.92    
  73.272      49.983      35.487      26.987      23.283      24.413      33.443      64.584      126.62      212.89    
  302.90      370.82      614.44      578.46      480.34      346.76      212.89      109.57      51.076      30.908    
  28.966      33.907      45.691      67.896      104.06      152.33      203.51      243.25      258.31      243.25    
  203.51      152.33      104.06      67.896      45.691      33.907      28.966      30.908      51.076      109.57    
  212.89      346.76      480.34      578.46      821.77      776.64      652.46      480.34      302.90      159.84    
  72.850      38.500      34.289      40.323      55.744      85.971      134.64      198.39      264.92      316.04    
  335.29      316.04      264.92      198.39      134.64      85.971      55.744      40.323      34.289      38.500    
  72.850      159.84      302.90      480.34      652.46      776.64      969.26      918.12      776.64      578.46    
  370.82      199.35      91.030      45.060      38.111      44.936      63.286      99.497      157.12      231.66    
  308.68      367.46      389.53      367.46      308.68      231.66      157.12      99.497      63.286      44.936    
  38.111      45.060      91.030      199.35      370.82      578.46      776.64      918.12      868.85      821.77    
  691.97      511.44      324.29      172.17      78.441      40.496      35.511      41.789      58.117      90.235    
  141.76      208.99      278.91      332.52      352.69      332.52      278.91      208.99      141.76      90.235    
  58.117      41.789      35.511      40.496      78.441      172.17      324.29      511.44      691.97      821.77    
  821.77      776.64      652.46      480.34      302.90      159.84      72.850      38.500      34.289      40.323    
  55.744      85.971      134.64      198.39      264.92      316.04      335.29      316.04      264.92      198.39    
  134.64      85.971      55.744      40.323      34.289      38.500      72.850      159.84      302.90      480.34    
  652.46      776.64      691.97      652.46      544.30      395.99      245.66      127.52      58.627      33.510    
  30.937      36.300      49.380      74.522      115.34      169.43      226.42      270.49      287.15      270.49    
  226.42      169.43      115.34      74.522      49.380      36.300      30.937      33.510      58.627      127.52    
  245.66      395.99      544.30      652.46      511.44      480.34      395.99      282.46      170.78      87.047    
  41.924      27.651      26.265      30.664      40.866      59.330      89.373      129.84      173.12      206.95    
  219.80      206.95      173.12      129.84      89.373      59.330      40.866      30.664      26.265      27.651    
  41.924      87.047      170.78      282.46      395.99      480.34      324.29      302.90      245.66      170.78    
  100.55      51.824      28.767      22.206      21.270      24.574      32.077      44.337      63.577      89.761    
  118.26      140.83      149.46      140.83      118.26      89.761      63.577      44.337      32.077      24.574    
  21.270      22.206      28.767      51.824      100.55      170.78      245.66      302.90      172.17      159.84    
  127.52      87.047      51.824      30.168      21.151      17.441      16.792      19.019      24.085      32.021    
  43.078      57.633      73.565      86.334      91.254      86.334      73.565      57.633      43.078      32.021    
  24.085      19.019      16.792      17.441      21.151      30.168      51.824      87.047      127.52      159.84    
  78.441      72.850      58.627      41.924      28.767      21.151      16.494      13.905      13.320      14.575    
  17.636      22.515      28.992      36.504      44.255      50.381      52.739      50.381      44.255      36.504    
  28.992      22.515      17.636      14.575      13.320      13.905      16.494      21.151      28.767      41.924    
  58.627      72.850      40.496      38.500      33.510      27.651      22.206      17.441      13.905      11.781    
  10.985      11.395      12.962      15.653      19.307      23.495      27.486      30.392      31.466      30.392    
  27.486      23.495      19.307      15.653      12.962      11.395      10.985      11.781      13.905      17.441    
  22.206      27.651      33.510      38.500      35.511      34.289      30.937      26.265      21.270      16.792    
  13.320      10.985      9.7085      9.3647      9.8580      11.104      12.958      15.141      17.237      18.763    
  19.323      18.763      17.237      15.141      12.958      11.104      9.8580      9.3647      9.7085      10.985    
  13.320      16.792      21.270      26.265      30.937      34.289      41.789      40.323      36.300      30.664    
  24.574      19.019      14.575      11.395      9.3647      8.2827      7.9680      8.2697      9.0289      10.042    
  11.055      11.804      12.080      11.804      11.055      10.042      9.0289      8.2697      7.9680      8.2827    
  9.3647      11.395      14.575      19.019      24.574      30.664      36.300      40.323      58.117      55.744    
  49.380      40.866      32.077      24.085      17.636      12.962      9.8580      7.9680      6.9682      6.6103    
  6.6927      7.0318      7.4516      7.7882      7.9164      7.7882      7.4516      7.0318      6.6927      6.6103    
  6.9682      7.9680      9.8580      12.962      17.636      24.085      32.077      40.866      49.380      55.744    
  90.235      85.971      74.522      59.330      44.337      32.021      22.515      15.653      11.104      8.2697    
  6.6103      5.7347      5.3634      5.2950      5.3816      5.5011      5.5546      5.5011      5.3816      5.2950    
  5.3634      5.7347      6.6103      8.2697      11.104      15.653      22.515      32.021      44.337      59.330    
  74.522      85.971      141.76      134.64      115.34      89.373      63.577      43.078      28.992      19.307    