unknown system                          
   1.00000000000000     
     3.750000    0.000000    0.000000
     0.000000    3.750000    0.000000
     0.000000    0.000000    3.750000
   Sr   Fe   O 
     1     1     3
Direct
  0.500000  0.500000  0.500000
  0.000000  0.000000  0.000000
  0.500000  0.000000  0.000000
  0.000000  0.500000  0.000000
  0.000000  0.000000  0.500000
 
   32   32   32
 0.10778104371E+04 0.10224793642E+04 0.86885179032E+03 0.65213804680E+03 0.42264525646E+03
 0.23021415778E+03 0.10574479826E+03 0.50547998005E+02 0.40966057426E+02 0.48410983110E+02
 0.69069615827E+02 0.10979688407E+03 0.17400822969E+03 0.25634601302E+03 0.34083943089E+03
 0.40503398478E+03 0.42907617995E+03 0.40503398478E+03 0.34083943089E+03 0.25634601302E+03
 0.17400822969E+03 0.10979688407E+03 0.69069615827E+02 0.48410983110E+02 0.40966057426E+02
 0.50547998005E+02 0.10574479826E+03 0.23021415778E+03 0.42264525646E+03 0.65213804680E+03
 0.86885179032E+03 0.10224793642E+04 0.10224793642E+04 0.96926160485E+03 0.82176856598E+03
 0.61444106456E+03 0.39604512621E+03 0.21430168876E+03 0.98108970480E+02 0.47680738795E+02
 0.39504874937E+02 0.46629759066E+02 0.66096614454E+02 0.10451246228E+03 0.16536717358E+03
 0.24374857863E+03 0.32445865696E+03 0.38592064128E+03 0.40896620762E+03 0.38592064128E+03
 0.32445865696E+03 0.24374857863E+03 0.16536717358E+03 0.10451246228E+03 0.66096614454E+02
 0.46629759066E+02 0.39504874937E+02 0.47680738795E+02 0.98108970480E+02 0.21430168876E+03
 0.39604512621E+03 0.61444106456E+03 0.82176856598E+03 0.96926160485E+03 0.86885179032E+03
 0.82176856598E+03 0.69197294744E+03 0.51143539258E+03 0.32428824025E+03 0.17216623422E+03
 0.78440825299E+02 0.40495518879E+02 0.35510963387E+02 0.41789196146E+02 0.58117259034E+02
 0.90235336618E+02 0.14176222660E+03 0.20898907308E+03 0.27891341605E+03 0.33252367086E+03
 0.35269360388E+03 0.33252367086E+03 0.27891341605E+03 0.20898907308E+03 0.14176222660E+03
 0.90235336618E+02 0.58117259034E+02 0.41789196146E+02 0.35510963387E+02 0.40495518879E+02
 0.78440825299E+02 0.17216623422E+03 0.32428824025E+03 0.51143539258E+03 0.69197294744E+03
 0.82176856598E+03 0.65213804680E+03 0.61444106456E+03 0.51143539258E+03 0.37068743401E+03
 0.22880636050E+03 0.11827144970E+03 0.54732556536E+02 0.32186681369E+02 0.29949507393E+02
 0.35084856168E+02 0.47482126568E+02 0.71102866037E+02 0.10952663919E+03 0.16064357788E+03
 0.21467133737E+03 0.25654724978E+03 0.27238855834E+03 0.25654724978E+03 0.21467133737E+03
 0.16064357788E+03 0.10952663919E+03 0.71102866037E+02 0.47482126568E+02 0.35084856168E+02
 0.29949507393E+02 0.32186681369E+02 0.54732556536E+02 0.11827144970E+03 0.22880636050E+03
 0.37068743401E+03 0.51143539258E+03 0.61444106456E+03 0.42264525646E+03 0.39604512621E+03
 0.32428824025E+03 0.22880636050E+03 0.13664106899E+03 0.69626503146E+02 0.35340877742E+02
 0.25215468731E+02 0.24015187359E+02 0.27861958932E+02 0.36731022263E+02 0.52097738265E+02
 0.76915558996E+02 0.11059187251E+03 0.14691474391E+03 0.17547820450E+03 0.18636317482E+03
 0.17547820450E+03 0.14691474391E+03 0.11059187251E+03 0.76915558996E+02 0.52097738265E+02
 0.36731022263E+02 0.27861958932E+02 0.24015187359E+02 0.25215468731E+02 0.35340877742E+02
 0.69626503146E+02 0.13664106899E+03 0.22880636050E+03 0.32428824025E+03 0.39604512621E+03
 0.23021415778E+03 0.21430168876E+03 0.17216623422E+03 0.11827144970E+03 0.69626503146E+02
 0.37932926652E+02 0.24162485086E+02 0.19571671005E+02 0.18719722671E+02 0.21301804920E+02
 0.27273055522E+02 0.36725647590E+02 0.50700659003E+02 0.69570639034E+02 0.90260563571E+02
 0.10678470931E+03 0.11313537597E+03 0.10678470931E+03 0.90260563571E+02 0.69570639034E+02
 0.50700659003E+02 0.36725647590E+02 0.27273055522E+02 0.21301804920E+02 0.18719722671E+02
 0.19571671005E+02 0.24162485086E+02 0.37932926652E+02 0.69626503146E+02 0.11827144970E+03
 0.17216623422E+03 0.21430168876E+03 0.10574479826E+03 0.98108970480E+02 0.78440825299E+02
 0.54732556536E+02 0.35340877742E+02 0.24162485086E+02 0.18494903281E+02 0.15379658714E+02
 0.14641987659E+02 0.16092179497E+02 0.19685105906E+02 0.25435247959E+02 0.33103505153E+02
 0.42428879966E+02 0.52398468342E+02 0.60372779960E+02 0.63451069369E+02 0.60372779960E+02
 0.52398468342E+02 0.42428879966E+02 0.33103505153E+02 0.25435247959E+02 0.19685105906E+02
 0.16092179497E+02 0.14641987659E+02 0.15379658714E+02 0.18494903281E+02 0.24162485086E+02
 0.35340877742E+02 0.54732556536E+02 0.78440825299E+02 0.98108970480E+02 0.50547998005E+02
 0.47680738795E+02 0.40495518879E+02 0.32186681369E+02 0.25215468731E+02 0.19571671005E+02
 0.15379658714E+02 0.12865821546E+02 0.11925911543E+02 0.12402481196E+02 0.14230679910E+02
 0.17378520535E+02 0.21665018578E+02 0.26590251756E+02 0.31302971510E+02 0.34814355566E+02
 0.36136512960E+02 0.34814355566E+02 0.31302971510E+02 0.26590251756E+02 0.21665018578E+02
 0.17378520535E+02 0.14230679910E+02 0.12402481196E+02 0.11925911543E+02 0.12865821546E+02
 0.15379658714E+02 0.19571671005E+02 0.25215468731E+02 0.32186681369E+02 0.40495518879E+02
 0.47680738795E+02 0.40966057426E+02 0.39504874937E+02 0.35510963387E+02 0.29949507393E+02
 0.24015187359E+02 0.18719722671E+02 0.14641987659E+02 0.11925911543E+02 0.10458774401E+02
 0.10073323850E+02 0.10649204913E+02 0.12090733166E+02 0.14235959462E+02 0.16771106577E+02
 0.19212599218E+02 0.20994771561E+02 0.21649754131E+02 0.20994771561E+02 0.19212599218E+02
 0.16771106577E+02 0.14235959462E+02 0.12090733166E+02 0.10649204913E+02 0.10073323850E+02
 0.10458774401E+02 0.11925911543E+02 0.14641987659E+02 0.18719722671E+02 0.24015187359E+02
 0.29949507393E+02 0.35510963387E+02 0.39504874937E+02 0.48410983110E+02 0.46629759066E+02
 0.41789196146E+02 0.35084856168E+02 0.27861958932E+02 0.21301804920E+02 0.16092179497E+02
 0.12402481196E+02 0.10073323850E+02 0.88452323987E+01 0.84919942790E+01 0.88348137078E+01
 0.96940433251E+01 0.10842465929E+02 0.11995359603E+02 0.12849789113E+02 0.13165418322E+02
 0.12849789113E+02 0.11995359603E+02 0.10842465929E+02 0.96940433251E+01 0.88348137078E+01
 0.84919942790E+01 0.88452323987E+01 0.10073323850E+02 0.12402481196E+02 0.16092179497E+02
 0.21301804920E+02 0.27861958932E+02 0.35084856168E+02 0.41789196146E+02 0.46629759066E+02
 0.69069615827E+02 0.66096614454E+02 0.58117259034E+02 0.47482126568E+02 0.36731022263E+02
 0.27273055522E+02 0.19685105906E+02 0.14230679910E+02 0.10649204913E+02 0.84919942790E+01
 0.73580245530E+01 0.69477160050E+01 0.70266121150E+01 0.73896326945E+01 0.78448128406E+01
 0.82129255608E+01 0.83538891487E+01 0.82129255608E+01 0.78448128406E+01 0.73896326945E+01
 0.70266121150E+01 0.69477160050E+01 0.73580245530E+01 0.84919942790E+01 0.10649204913E+02
 0.14230679910E+02 0.19685105906E+02 0.27273055522E+02 0.36731022263E+02 0.47482126568E+02
 0.58117259034E+02 0.66096614454E+02 0.10979688407E+03 0.10451246228E+03 0.90235336618E+02
 0.71102866037E+02 0.52097738265E+02 0.36725647590E+02 0.25435247959E+02 0.17378520535E+02
 0.12090733166E+02 0.88348137078E+01 0.69477160050E+01 0.59534935273E+01 0.55201265737E+01
 0.54182535975E+01 0.54899180450E+01 0.56069635420E+01 0.56613362846E+01 0.56069635420E+01
 0.54899180450E+01 0.54182535975E+01 0.55201265737E+01 0.59534935273E+01 0.69477160050E+01
 0.88348137078E+01 0.12090733166E+02 0.17378520535E+02 0.25435247959E+02 0.36725647590E+02
 0.52097738265E+02 0.71102866037E+02 0.90235336618E+02 0.10451246228E+03 0.17400822969E+03
 0.16536717358E+03 0.14176222660E+03 0.10952663919E+03 0.76915558996E+02 0.50700659003E+02
 0.33103505153E+02 0.21665018578E+02 0.14235959462E+02 0.96940433251E+01 0.70266121150E+01
 0.55201265737E+01 0.47027678646E+01 0.42875877161E+01 0.41212924590E+01 0.40955286922E+01
 0.41038989944E+01 0.40955286922E+01 0.41212924590E+01 0.42875877161E+01 0.47027678646E+01
 0.55201265737E+01 0.70266121150E+01 0.96940433251E+01 0.14235959462E+02 0.21665018578E+02
 0.33103505153E+02 0.50700659003E+02 0.76915558996E+02 0.10952663919E+03 0.14176222660E+03
 0.16536717358E+03 0.25634601302E+03 0.24374857863E+03 0.20898907308E+03 0.16064357788E+03
 0.11059187251E+03 0.69570639034E+02 0.42428879966E+02 0.26590251756E+02 0.16771106577E+02
 0.10842465929E+02 0.73896326945E+01 0.54182535975E+01 0.42875877161E+01 0.36334778069E+01
 0.32945638060E+01 0.31720371726E+01 0.31512916680E+01 0.31720371726E+01 0.32945638060E+01
 0.36334778069E+01 0.42875877161E+01 0.54182535975E+01 0.73896326945E+01 0.10842465929E+02
 0.16771106577E+02 0.26590251756E+02 0.42428879966E+02 0.69570639034E+02 0.11059187251E+03
 0.16064357788E+03 0.20898907308E+03 0.24374857863E+03 0.34083943089E+03 0.32445865696E+03
 0.27891341605E+03 0.21467133737E+03 0.14691474391E+03 0.90260563571E+02 0.52398468342E+02
 0.31302971510E+02 0.19212599218E+02 0.11995359603E+02 0.78448128406E+01 0.54899180450E+01
 0.41212924590E+01 0.32945638060E+01 0.28347190863E+01 0.26477136461E+01 0.26087172748E+01
 0.26477136461E+01 0.28347190863E+01 0.32945638060E+01 0.41212924590E+01 0.54899180450E+01
 0.78448128406E+01 0.11995359603E+02 0.19212599218E+02 0.31302971510E+02 0.52398468342E+02
 0.90260563571E+02 0.14691474391E+03 0.21467133737E+03 0.27891341605E+03 0.32445865696E+03
 0.40503398478E+03 0.38592064128E+03 0.33252367086E+03 0.25654724978E+03 0.17547820450E+03
 0.10678470931E+03 0.60372779960E+02 0.34814355566E+02 0.20994771561E+02 0.12849789113E+02
 0.82129255608E+01 0.56069635420E+01 0.40955286922E+01 0.31720371726E+01 0.26477136461E+01
 0.24289745127E+01 0.23819158525E+01 0.24289745127E+01 0.26477136461E+01 0.31720371726E+01
 0.40955286922E+01 0.56069635420E+01 0.82129255608E+01 0.12849789113E+02 0.20994771561E+02
 0.34814355566E+02 0.60372779960E+02 0.10678470931E+03 0.17547820450E+03 0.25654724978E+03
 0.33252367086E+03 0.38592064128E+03 0.42907617995E+03 0.40896620762E+03 0.35269360388E+03
 0.27238855834E+03 0.18636317482E+03 0.11313537597E+03 0.63451069369E+02 0.36136512960E+02
 0.21649754131E+02 0.13165418322E+02 0.83538891487E+01 0.56613362846E+01 0.41038989944E+01
 0.31512916680E+01 0.26087172748E+01 0.23819158525E+01 0.23331454410E+01 0.23819158525E+01
 0.26087172748E+01 0.31512916680E+01 0.41038989944E+01 0.56613362846E+01 0.83538891487E+01
 0.13165418322E+02 0.21649754131E+02 0.36136512960E+02 0.63451069369E+02 0.11313537597E+03
 0.18636317482E+03 0.27238855834E+03 0.35269360388E+03 0.40896620762E+03 0.40503398478E+03
 0.38592064128E+03 0.33252367086E+03 0.25654724978E+03 0.17547820450E+03 0.10678470931E+03
 0.60372779960E+02 0.34814355566E+02 0.20994771561E+02 0.12849789113E+02 0.82129255608E+01
 0.56069635420E+01 0.40955286922E+01 0.31720371726E+01 0.26477136461E+01 0.24289745127E+01
 0.23819158525E+01 0.24289745127E+01 0.26477136461E+01 0.31720371726E+01 0.40955286922E+01
 0.56069635420E+01 0.82129255608E+01 0.12849789113E+02 0.20994771561E+02 0.34814355566E+02
 0.60372779960E+02 0.10678470931E+03 0.17547820450E+03 0.25654724978E+03 0.33252367086E+03
 0.38592064128E+03 0.34083943089E+03 0.32445865696E+03 0.27891341605E+03 0.21467133737E+03
 0.14691474391E+03 0.90260563571E+02 0.52398468342E+02 0.31302971510E+02 0.19212599218E+02
 0.11995359603E+02 0.78448128406E+01 0.54899180450E+01 0.41212924590E+01 0.32945638060E+01
 0.28347190863E+01 0.26477136461E+01 0.26087172748E+01 0.26477136461E+01 0.28347190863E+01
 0.32945638060E+01 0.41212924590E+01 0.54899180450E+01 0.78448128406E+01 0.11995359603E+02
 0.19212599218E+02 0.31302971510E+02 0.52398468342E+02 0.90260563571E+02 0.14691474391E+03
 0.21467133737E+03 0.27891341605E+03 0.32445865696E+03 0.25634601302E+03 0.24374857863E+03
 0.20898907308E+03 0.16064357788E+03 0.11059187251E+03 0.69570639034E+02 0.42428879966E+02
 0.26590251756E+02 0.16771106577E+02 0.10842465929E+02 0.73896326945E+01 0.54182535975E+01
 0.42875877161E+01 0.36334778069E+01 0.32945638060E+01 0.31720371726E+01 0.31512916680E+01
 0.31720371726E+01 0.32945638060E+01 0.36334778069E+01 0.42875877161E+01 0.54182535975E+01
 0.73896326945E+01 0.10842465929E+02 0.16771106577E+02 0.26590251756E+02 0.42428879966E+02
 0.69570639034E+02 0.11059187251E+03 0.16064357788E+03 0.20898907308E+03 0.24374857863E+03
 0.17400822969E+03 0.16536717358E+03 0.14176222660E+03 0.10952663919E+03 0.76915558996E+02
 0.50700659003E+02 0.33103505153E+02 0.21665018578E+02 0.14235959462E+02 0.96940433251E+01
 0.70266121150E+01 0.55201265737E+01 0.47027678646E+01 0.42875877161E+01 0.41212924590E+01
 0.40955286922E+01 0.41038989944E+01 0.40955286922E+01 0.41212924590E+01 0.42875877161E+01
 0.47027678646E+01 0.55201265737E+01 0.70266121150E+01 0.96940433251E+01 0.14235959462E+02
 0.21665018578E+02 0.33103505153E+02 0.50700659003E+02 0.76915558996E+02 0.10952663919E+03
 0.14176222660E+03 0.16536717358E+03 0.10979688407E+03 0.10451246228E+03 0.90235336618E+02
 0.71102866037E+02 0.52097738265E+02 0.36725647590E+02 0.25435247959E+02 0.17378520535E+02
 0.12090733166E+02 0.88348137078E+01 0.69477160050E+01 0.59534935273E+01 0.55201265737E+01
 0.54182535975E+01 0.54899180450E+01 0.56069635420E+01 0.56613362846E+01 0.56069635420E+01
 0.54899180450E+01 0.54182535975E+01 0.55201265737E+01 0.59534935273E+01 0.69477160050E+01
 0.88348137078E+01 0.12090733166E+02 0.17378520535E+02 0.25435247959E+02 0.36725647590E+02
 0.52097738265E+02 0.71102866037E+02 0.90235336618E+02 0.10451246228E+03 0.69069615827E+02
 0.66096614454E+02 0.58117259034E+02 0.47482126568E+02 0.36731022263E+02 0.27273055522E+02
 0.19685105906E+02 0.14230679910E+02 0.10649204913E+02 0.84919942790E+01 0.73580245530E+01
 0.69477160050E+01 0.70266121150E+01 0.73896326945E+01 0.78448128406E+01 0.82129255608E+01
 0.83538891487E+01 0.82129255608E+01 0.78448128406E+01 0.73896326945E+01 0.70266121150E+01
 0.69477160050E+01 0.73580245530E+01 0.84919942790E+01 0.10649204913E+02 0.14230679910E+02
 0.19685105906E+02 0.27273055522E+02 0.36731022263E+02 0.47482126568E+02 0.58117259034E+02
 0.66096614454E+02 0.48410983110E+02 0.46629759066E+02 0.41789196146E+02 0.35084856168E+02
 0.27861958932E+02 0.21301804920E+02 0.16092179497E+02 0.12402481196E+02 0.10073323850E+02
 0.88452323987E+01 0.84919942790E+01 0.88348137078E+01 0.96940433251E+01 0.10842465929E+02
 0.11995359603E+02 0.12849789113E+02 0.13165418322E+02 0.12849789113E+02 0.11995359603E+02
 0.10842465929E+02 0.96940433251E+01 0.88348137078E+01 0.84919942790E+01 0.88452323987E+01
 0.10073323850E+02 0.12402481196E+02 0.16092179497E+02 0.21301804920E+02 0.27861958932E+02
 0.35084856168E+02 0.41789196146E+02 0.46629759066E+02 0.40966057426E+02 0.39504874937E+02
 0.35510963387E+02 0.29949507393E+02 0.24015187359E+02 0.18719722671E+02 0.14641987659E+02
 0.11925911543E+02 0.10458774401E+02 0.10073323850E+02 0.10649204913E+02 0.12090733166E+02
 0.14235959462E+02 0.16771106577E+02 0.19212599218E+02 0.20994771561E+02 0.21649754131E+02
 0.20994771561E+02 0.19212599218E+02 0.16771106577E+02 0.14235959462E+02 0.12090733166E+02
 0.10649204913E+02 0.10073323850E+02 0.10458774401E+02 0.11925911543E+02 0.14641987659E+02
 0.18719722671E+02 0.24015187359E+02 0.29949507393E+02 0.35510963387E+02 0.39504874937E+02
 0.50547998005E+02 0.47680738795E+02 0.40495518879E+02 0.32186681369E+02 0.25215468731E+02
 0.19571671005E+02 0.15379658714E+02 0.12865821546E+02 0.11925911543E+02 0.12402481196E+02
 0.14230679910E+02 0.17378520535E+02 0.21665018578E+02 0.26590251756E+02 0.31302971510E+02
 0.34814355566E+02 0.36136512960E+02 0.34814355566E+02 0.31302971510E+02 0.26590251756E+02
 0.21665018578E+02 0.17378520535E+02 0.14230679910E+02 0.12402481196E+02 0.11925911543E+02
 0.12865821546E+02 0.15379658714E+02 0.19571671005E+02 0.25215468731E+02 0.32186681369E+02
 0.40495518879E+02 0.47680738795E+02 0.10574479826E+03 0.98108970480E+02 0.78440825299E+02
 0.54732556536E+02 0.35340877742E+02 0.24162485086E+02 0.18494903281E+02 0.15379658714E+02
 0.14641987659E+02 0.16092179497E+02 0.19685105906E+02 0.25435247959E+02 0.33103505153E+02
 0.42428879966E+02 0.52398468342E+02 0.60372779960E+02 0.63451069369E+02 0.60372779960E+02
 0.52398468342E+02 0.42428879966E+02 0.33103505153E+02 0.25435247959E+02 0.19685105906E+02
 0.16092179497E+02 0.14641987659E+02 0.15379658714E+02 0.18494903281E+02 0.24162485086E+02
 0.35340877742E+02 0.54732556536E+02 0.78440825299E+02 0.98108970480E+02 0.23021415778E+03
 0.21430168876E+03 0.17216623422E+03 0.11827144970E+03 0.69626503146E+02 0.37932926652E+02
 0.24162485086E+02 0.19571671005E+02 0.18719722671E+02 0.21301804920E+02 0.27273055522E+02
 0.36725647590E+02 0.50700659003E+02 0.69570639034E+02 0.90260563571E+02 0.10678470931E+03
 0.11313537597E+03 0.10678470931E+03 0.90260563571E+02 0.69570639034E+02 0.50700659003E+02
 0.36725647590E+02 0.27273055522E+02 0.21301804920E+02 0.18719722671E+02 0.19571671005E+02
 0.24162485086E+02 0.37932926652E+02 0.69626503146E+02 0.11827144970E+03 0.17216623422E+03
 0.21430168876E+03 0.42264525646E+03 0.39604512621E+03 0.32428824025E+03 0.22880636050E+03
 0.13664106899E+03 0.69626503146E+02 0.35340877742E+02 0.25215468731E+02 0.24015187359E+02
 0.27861958932E+02 0.36731022263E+02 0.52097738265E+02 0.76915558996E+02 0.11059187251E+03
 0.14691474391E+03 0.17547820450E+03 0.18636317482E+03 0.17547820450E+03 0.14691474391E+03
 0.11059187251E+03 0.76915558996E+02 0.52097738265E+02 0.36731022263E+02 0.27861958932E+02
 0.24015187359E+02 0.25215468731E+02 0.35340877742E+02 0.69626503146E+02 0.13664106899E+03
 0.22880636050E+03 0.32428824025E+03 0.39604512621E+03 0.65213804680E+03 0.61444106456E+03
 0.51143539258E+03 0.37068743401E+03 0.22880636050E+03 0.11827144970E+03 0.54732556536E+02
 0.32186681369E+02 0.29949507393E+02 0.35084856168E+02 0.47482126568E+02 0.71102866037E+02
 0.10952663919E+03 0.16064357788E+03 0.21467133737E+03 0.25654724978E+03 0.27238855834E+03
 0.25654724978E+03 0.21467133737E+03 0.16064357788E+03 0.10952663919E+03 0.71102866037E+02
 0.47482126568E+02 0.35084856168E+02 0.29949507393E+02 0.32186681369E+02 0.54732556536E+02
 0.11827144970E+03 0.22880636050E+03 0.37068743401E+03 0.51143539258E+03 0.61444106456E+03
 0.86885179032E+03 0.82176856598E+03 0.69197294744E+03 0.51143539258E+03 0.32428824025E+03
 0.17216623422E+03 0.78440825299E+02 0.40495518879E+02 0.35510963387E+02 0.41789196146E+02
 0.58117259034E+02 0.90235336618E+02 0.14176222660E+03 0.20898907308E+03 0.27891341605E+03
 0.33252367086E+03 0.35269360388E+03 0.33252367086E+03 0.27891341605E+03 0.20898907308E+03
 0.14176222660E+03 0.90235336618E+02 0.58117259034E+02 0.41789196146E+02 0.35510963387E+02
 0.40495518879E+02 0.78440825299E+02 0.17216623422E+03 0.32428824025E+03 0.51143539258E+03
 0.69197294744E+03 0.82176856598E+03 0.10224793642E+04 0.96926160485E+03 0.82176856598E+03
 0.61444106456E+03 0.39604512621E+03 0.21430168876E+03 0.98108970480E+02 0.47680738795E+02
 0.39504874937E+02 0.46629759066E+02 0.66096614454E+02 0.10451246228E+03 0.16536717358E+03
 0.24374857863E+03 0.32445865696E+03 0.38592064128E+03 0.40896620762E+03 0.38592064128E+03
 0.32445865696E+03 0.24374857863E+03 0.16536717358E+03 0.10451246228E+03 0.66096614454E+02
 0.46629759066E+02 0.39504874937E+02 0.47680738795E+02 0.98108970480E+02 0.21430168876E+03
 0.39604512621E+03 0.61444106456E+03 0.82176856598E+03 0.96926160485E+03 0.10224793642E+04
 0.96926160485E+03 0.82176856598E+03 0.61444106456E+03 0.39604512621E+03 0.21430168876E+03
 0.98108970480E+02 0.47680738795E+02 0.39504874937E+02 0.46629759066E+02 0.66096614454E+02
 0.10451246228E+03 0.16536717358E+03 0.24374857863E+03 0.32445865696E+03 0.38592064128E+03
 0.40896620762E+03 0.38592064128E+03 0.32445865696E+03 0.24374857863E+03 0.16536717358E+03
 0.10451246228E+03 0.66096614454E+02 0.46629759066E+02 0.39504874937E+02 0.47680738795E+02
 0.98108970480E+02 0.21430168876E+03 0.39604512621E+03 0.61444106456E+03 0.82176856598E+03
 0.96926160485E+03 0.96926160485E+03 0.91812122206E+03 0.77664035434E+03 0.57846436720E+03
 0.37081746152E+03 0.19934700087E+03 0.91029657972E+02 0.45059584549E+02 0.38111454865E+02
 0.44935675844E+02 0.63285638120E+02 0.99497426737E+02 0.15711879664E+03 0.23166044863E+03
 0.30867730409E+03 0.36746070292E+03 0.38952717475E+03 0.36746070292E+03 0.30867730409E+03
 0.23166044863E+03 0.15711879664E+03 0.99497426737E+02 0.63285638120E+02 0.44935675844E+02
 0.38111454865E+02 0.45059584549E+02 0.91029657972E+02 0.19934700087E+03 0.37081746152E+03
 0.57846436720E+03 0.77664035434E+03 0.91812122206E+03 0.82176856598E+03 0.77664035434E+03
 0.65245651379E+03 0.48033850767E+03 0.30289745556E+03 0.15984101208E+03 0.72849895387E+02
 0.38500112775E+02 0.34289452821E+02 0.40322665481E+02 0.55744492848E+02 0.85971150540E+02
 0.13463668875E+03 0.19839087892E+03 0.26492031423E+03 0.31604027315E+03 0.33529452905E+03
 0.31604027315E+03 0.26492031423E+03 0.19839087892E+03 0.13463668875E+03 0.85971150540E+02
 0.55744492848E+02 0.40322665481E+02 0.34289452821E+02 0.38500112775E+02 0.72849895387E+02
 0.15984101208E+03 0.30289745556E+03 0.48033850767E+03 0.65245651379E+03 0.77664035434E+03
 0.61444106456E+03 0.57846436720E+03 0.48033850767E+03 0.34675561782E+03 0.21289480006E+03
 0.10956563229E+03 0.51076086771E+02 0.30908363944E+02 0.28966147758E+02 0.33906739958E+02
 0.45690902719E+02 0.67895880743E+02 0.10405720263E+03 0.15232906313E+03 0.20350532614E+03
 0.24325462200E+03 0.25830737083E+03 0.24325462200E+03 0.20350532614E+03 0.15232906313E+03
 0.10405720263E+03 0.67895880743E+02 0.45690902719E+02 0.33906739958E+02 0.28966147758E+02
 0.30908363944E+02 0.51076086771E+02 0.10956563229E+03 0.21289480006E+03 0.34675561782E+03
 0.48033850767E+03 0.57846436720E+03 0.39604512621E+03 0.37081746152E+03 0.30289745556E+03
 0.21289480006E+03 0.12661660644E+03 0.64583519764E+02 0.33442560194E+02 0.24413004931E+02
 0.23283492252E+02 0.26986942845E+02 0.35487203690E+02 0.49983102405E+02 0.73272244443E+02
 0.10492012575E+03 0.13913876613E+03 0.16609880684E+03 0.17638293662E+03 0.16609880684E+03
 0.13913876613E+03 0.10492012575E+03 0.73272244443E+02 0.49983102405E+02 0.35487203690E+02
 0.26986942845E+02 0.23283492252E+02 0.24413004931E+02 0.33442560194E+02 0.64583519764E+02
 0.12661660644E+03 0.21289480006E+03 0.30289745556E+03 0.37081746152E+03 0.21430168876E+03
 0.19934700087E+03 0.15984101208E+03 0.10956563229E+03 0.64583519764E+02 0.35689773777E+02
 0.23326959333E+02 0.19004277929E+02 0.18207671985E+02 0.20696000496E+02 0.26426599512E+02
 0.35461080149E+02 0.48617028218E+02 0.66297400314E+02 0.85687796330E+02 0.10119164858E+03
 0.10715460712E+03 0.10119164858E+03 0.85687796330E+02 0.66297400314E+02 0.48617028218E+02
 0.35461080149E+02 0.26426599512E+02 0.20696000496E+02 0.18207671985E+02 0.19004277929E+02
 0.23326959333E+02 0.35689773777E+02 0.64583519764E+02 0.10956563229E+03 0.15984101208E+03
 0.19934700087E+03 0.98108970480E+02 0.91029657972E+02 0.72849895387E+02 0.51076086771E+02
 0.33442560194E+02 0.23326959333E+02 0.17962052076E+02 0.14988328674E+02 0.14292509534E+02
 0.15691307550E+02 0.19142544058E+02 0.24660464528E+02 0.32003815307E+02 0.40812983599E+02
 0.50161661487E+02 0.57623289632E+02 0.60502371188E+02 0.57623289632E+02 0.50161661487E+02
 0.40812983599E+02 0.32003815307E+02 0.24660464528E+02 0.19142544058E+02 0.15691307550E+02
 0.14292509534E+02 0.14988328674E+02 0.17962052076E+02 0.23326959333E+02 0.33442560194E+02
 0.51076086771E+02 0.72849895387E+02 0.91029657972E+02 0.47680738795E+02 0.45059584549E+02
 0.38500112775E+02 0.30908363944E+02 0.24413004931E+02 0.19004277929E+02 0.14988328674E+02
 0.12579368799E+02 0.11678535339E+02 0.12137736958E+02 0.13896118688E+02 0.16921937988E+02
 0.21039486138E+02 0.25767665172E+02 0.30283359445E+02 0.33620010773E+02 0.34870871082E+02
 0.33620010773E+02 0.30283359445E+02 0.25767665172E+02 0.21039486138E+02 0.16921937988E+02
 0.13896118688E+02 0.12137736958E+02 0.11678535339E+02 0.12579368799E+02 0.14988328674E+02
 0.19004277929E+02 0.24413004931E+02 0.30908363944E+02 0.38500112775E+02 0.45059584549E+02
 0.39504874937E+02 0.38111454865E+02 0.34289452821E+02 0.28966147758E+02 0.23283492252E+02
 0.18207671985E+02 0.14292509534E+02 0.11678535339E+02 0.10262401458E+02 0.98879142687E+01
 0.10441469709E+02 0.11830586598E+02 0.13897544964E+02 0.16338484895E+02 0.18687360407E+02
 0.20400789233E+02 0.21030273999E+02 0.20400789233E+02 0.18687360407E+02 0.16338484895E+02
 0.13897544964E+02 0.11830586598E+02 0.10441469709E+02 0.98879142687E+01 0.10262401458E+02
 0.11678535339E+02 0.14292509534E+02 0.18207671985E+02 0.23283492252E+02 0.28966147758E+02
 0.34289452821E+02 0.38111454865E+02 0.46629759066E+02 0.44935675844E+02 0.40322665481E+02
 0.33906739958E+02 0.26986942845E+02 0.20696000496E+02 0.15691307550E+02 0.12137736958E+02
 0.98879142687E+01 0.86982501062E+01 0.83546601433E+01 0.86859032775E+01 0.95179145632E+01
 0.10629745891E+02 0.11745067095E+02 0.12570976547E+02 0.12875913347E+02 0.12570976547E+02
 0.11745067095E+02 0.10629745891E+02 0.95179145632E+01 0.86859032775E+01 0.83546601433E+01
 0.86982501062E+01 0.98879142687E+01 0.12137736958E+02 0.15691307550E+02 0.20696000496E+02
 0.26986942845E+02 0.33906739958E+02 0.40322665481E+02 0.44935675844E+02 0.66096614454E+02
 0.63285638120E+02 0.55744492848E+02 0.45690902719E+02 0.35487203690E+02 0.26426599512E+02
 0.19142544058E+02 0.13896118688E+02 0.10441469709E+02 0.83546601433E+01 0.72555144418E+01
 0.68582455808E+01 0.69372468858E+01 0.72932419141E+01 0.77384674565E+01 0.80978328871E+01
 0.82352803947E+01 0.80978328871E+01 0.77384674565E+01 0.72932419141E+01 0.69372468858E+01
 0.68582455808E+01 0.72555144418E+01 0.83546601433E+01 0.10441469709E+02 0.13896118688E+02
 0.19142544058E+02 0.26426599512E+02 0.35487203690E+02 0.45690902719E+02 0.55744492848E+02
 0.63285638120E+02 0.10451246228E+03 0.99497426737E+02 0.85971150540E+02 0.67895880743E+02
 0.49983102405E+02 0.35461080149E+02 0.24660464528E+02 0.16921937988E+02 0.11830586598E+02
 0.86859032775E+01 0.68582455808E+01 0.58943473681E+01 0.54763646713E+01 0.53824680042E+01
 0.54574081964E+01 0.55746236510E+01 0.56285713320E+01 0.55746236510E+01 0.54574081964E+01
 0.53824680042E+01 0.54763646713E+01 0.58943473681E+01 0.68582455808E+01 0.86859032775E+01
 0.11830586598E+02 0.16921937988E+02 0.24660464528E+02 0.35461080149E+02 0.49983102405E+02
 0.67895880743E+02 0.85971150540E+02 0.99497426737E+02 0.16536717358E+03 0.15711879664E+03
 0.13463668875E+03 0.10405720263E+03 0.73272244443E+02 0.48617028218E+02 0.32003815307E+02
 0.21039486138E+02 0.13897544964E+02 0.95179145632E+01 0.69372468858E+01 0.54763646713E+01
 0.46848437539E+01 0.42864761936E+01 0.41305309187E+01 0.41091738431E+01 0.41184370416E+01
 0.41091738431E+01 0.41305309187E+01 0.42864761936E+01 0.46848437539E+01 0.54763646713E+01
 0.69372468858E+01 0.95179145632E+01 0.13897544964E+02 0.21039486138E+02 0.32003815307E+02
 0.48617028218E+02 0.73272244443E+02 0.10405720263E+03 0.13463668875E+03 0.15711879664E+03
 0.24374857863E+03 0.23166044863E+03 0.19839087892E+03 0.15232906313E+03 0.10492012575E+03
 0.66297400314E+02 0.40812983599E+02 0.25767665172E+02 0.16338484895E+02 0.10629745891E+02
 0.72932419141E+01 0.53824680042E+01 0.42864761936E+01 0.36558243982E+01 0.33321617358E+01
 0.32166548264E+01 0.31975114909E+01 0.32166548264E+01 0.33321617358E+01 0.36558243982E+01
 0.42864761936E+01 0.53824680042E+01 0.72932419141E+01 0.10629745891E+02 0.16338484895E+02
 0.25767665172E+02 0.40812983599E+02 0.66297400314E+02 0.10492012575E+03 0.15232906313E+03
 0.19839087892E+03 0.23166044863E+03 0.32445865696E+03 0.30867730409E+03 0.26492031423E+03
 0.20350532614E+03 0.13913876613E+03 0.85687796330E+02 0.50161661487E+02 0.30283359445E+02
 0.18687360407E+02 0.11745067095E+02 0.77384674565E+01 0.54574081964E+01 0.41305309187E+01
 0.33321617358E+01 0.28909958976E+01 0.27126883490E+01 0.26756942498E+01 0.27126883490E+01
 0.28909958976E+01 0.33321617358E+01 0.41305309187E+01 0.54574081964E+01 0.77384674565E+01
 0.11745067095E+02 0.18687360407E+02 0.30283359445E+02 0.50161661487E+02 0.85687796330E+02
 0.13913876613E+03 0.20350532614E+03 0.26492031423E+03 0.30867730409E+03 0.38592064128E+03
 0.36746070292E+03 0.31604027315E+03 0.24325462200E+03 0.16609880684E+03 0.10119164858E+03
 0.57623289632E+02 0.33620010773E+02 0.20400789233E+02 0.12570976547E+02 0.80978328871E+01
 0.55746236510E+01 0.41091738431E+01 0.32166548264E+01 0.27126883490E+01 0.25033389936E+01
 0.24583942842E+01 0.25033389936E+01 0.27126883490E+01 0.32166548264E+01 0.41091738431E+01
 0.55746236510E+01 0.80978328871E+01 0.12570976547E+02 0.20400789233E+02 0.33620010773E+02
 0.57623289632E+02 0.10119164858E+03 0.16609880684E+03 0.24325462200E+03 0.31604027315E+03
 0.36746070292E+03 0.40896620762E+03 0.38952717475E+03 0.33529452905E+03 0.25830737083E+03
 0.17638293662E+03 0.10715460712E+03 0.60502371188E+02 0.34870871082E+02 0.21030273999E+02
 0.12875913347E+02 0.82352803947E+01 0.56285713320E+01 0.41184370416E+01 0.31975114909E+01
 0.26756942498E+01 0.24583942842E+01 0.24117299049E+01 0.24583942842E+01 0.26756942498E+01
 0.31975114909E+01 0.41184370416E+01 0.56285713320E+01 0.82352803947E+01 0.12875913347E+02
 0.21030273999E+02 0.34870871082E+02 0.60502371188E+02 0.10715460712E+03 0.17638293662E+03
 0.25830737083E+03 0.33529452905E+03 0.38952717475E+03 0.38592064128E+03 0.36746070292E+03
 0.31604027315E+03 0.24325462200E+03 0.16609880684E+03 0.10119164858E+03 0.57623289632E+02
 0.33620010773E+02 0.20400789233E+02 0.12570976547E+02 0.80978328871E+01 0.55746236510E+01
 0.41091738431E+01 0.32166548264E+01 0.27126883490E+01 0.25033389936E+01 0.24583942842E+01
 0.25033389936E+01 0.27126883490E+01 0.32166548264E+01 0.41091738431E+01 0.55746236510E+01
 0.80978328871E+01 0.12570976547E+02 0.20400789233E+02 0.33620010773E+02 0.57623289632E+02
 0.10119164858E+03 0.16609880684E+03 0.24325462200E+03 0.31604027315E+03 0.36746070292E+03
 0.32445865696E+03 0.30867730409E+03 0.26492031423E+03 0.20350532614E+03 0.13913876613E+03
 0.85687796330E+02 0.50161661487E+02 0.30283359445E+02 0.18687360407E+02 0.11745067095E+02
 0.77384674565E+01 0.54574081964E+01 0.41305309187E+01 0.33321617358E+01 0.28909958976E+01
 0.27126883490E+01 0.26756942498E+01 0.27126883490E+01 0.28909958976E+01 0.33321617358E+01
 0.41305309187E+01 0.54574081964E+01 0.77384674565E+01 0.11745067095E+02 0.18687360407E+02