    5    5   99    2
  0.1054688E+02  0.3750000E-09  0.3750000E-09  0.3750000E-09  0.5000000E-15
  1.000000000000000E-004
  CAR 
 unknown system                          
     42     10     28
 
  0.8333333E-01  0.8333333E-01  0.8333333E-01  0.3703704E-01
    1      -53.337223    -49.237506   1.000000   1.000000
    2      -53.337061    -49.237401   1.000000   1.000000
    3      -53.337061    -49.237401   1.000000   1.000000
    4      -28.666829    -28.656852   1.000000   1.000000
    5      -15.015739    -14.851938   1.000000   1.000000
    6      -13.631433    -13.172381   1.000000   1.000000
    7      -13.631433    -13.172381   1.000000   1.000000
    8      -10.754497    -10.727274   1.000000   1.000000
    9      -10.754497    -10.727274   1.000000   1.000000
   10      -10.665748    -10.646919   1.000000   1.000000
   11       -3.199593     -0.876064   1.000000   1.000000
   12       -3.199592     -0.648640   1.000000   1.000000
   13       -3.186595     -0.648640   1.000000   1.000000
   14       -1.886162      1.837207   1.000000   1.000000
   15       -1.886162      1.837207   1.000000   1.000000
   16       -1.002598      2.352902   1.000000   1.000000
   17        0.140347      2.427826   1.000000   1.000000
   18        0.140347      2.789131   1.000000   1.000000
   19        1.914000      2.789132   1.000000   1.000000
   20        1.914000      4.817976   1.000000   0.000000
   21        2.146513      4.875994   1.000000   0.000000
   22        2.505682      4.875995   1.000000   0.000000
   23        3.016732      5.631140   1.000511   0.000000
   24        3.016732      5.631140   1.050136   0.000000
   25        9.602773      9.675876   0.000000   0.000000
   26        9.602774      9.675886   0.000000   0.000000
   27       11.338675     11.483693   0.000000   0.000000
   28       12.158050     12.481886   0.000000   0.000000
 
  0.2500000E+00  0.8333333E-01  0.8333333E-01  0.1111111E+00
    1      -53.338350    -49.239259   1.000000   1.000000
    2      -53.337078    -49.237350   1.000000   1.000000
    3      -53.337028    -49.237302   1.000000   1.000000
    4      -28.647545    -28.637739   1.000000   1.000000
    5      -15.004974    -14.834412   1.000000   1.000000
    6      -13.686487    -13.364044   1.000000   1.000000
    7      -13.595900    -13.131666   1.000000   1.000000
    8      -10.742880    -10.716794   1.000000   1.000000
    9      -10.683698    -10.653277   1.000000   1.000000
   10      -10.421225    -10.371814   1.000000   1.000000
   11       -3.444992     -1.383004   1.000000   1.000000
   12       -3.367207     -0.695428   1.000000   1.000000
   13       -3.351629     -0.643121   1.000000   1.000000
   14       -3.199843      1.122977   1.000000   1.000000
   15       -1.884595      1.135637   1.000000   1.000000
   16       -1.004656      1.832949   1.000000   1.000000
   17        0.171085      2.187076   1.000000   1.000000
   18        0.943000      2.409249   1.000000   1.000000
   19        1.530010      2.538781   1.000000   1.000000
   20        1.954393      4.884328   1.000000   0.000000
   21        2.192403      5.487645   1.000000   0.000000
   22        2.203161      5.537170   1.000000   0.000000
   23        2.890207      5.686732   1.004230   0.000000
   24        3.369435      6.692028   0.900164   0.000000
   25       10.422114     10.521955   0.000000   0.000000
   26       10.512478     10.587534   0.000000   0.000000
   27       12.172164     12.298576   0.000000   0.000000
   28       12.497641     12.569855   0.000000   0.000000
 
  0.4166667E+00  0.8333333E-01  0.8333333E-01  0.1111111E+00
    1      -53.339630    -49.241208   1.000000   1.000000
    2      -53.337103    -49.237297   1.000000   1.000000
    3      -53.336972    -49.237218   1.000000   1.000000
    4      -28.628103    -28.618474   1.000000   1.000000
    5      -15.063243    -14.866373   1.000000   1.000000
    6      -13.613306    -13.439734   1.000000   1.000000
    7      -13.559420    -13.089169   1.000000   1.000000
    8      -10.731907    -10.707053   1.000000   1.000000
    9      -10.620562    -10.596787   1.000000   1.000000
   10      -10.207586    -10.146359   1.000000   1.000000
   11       -4.438278     -1.836692   1.000000   1.000000
   12       -3.569928     -0.705633   1.000000   1.000000
   13       -3.513971     -0.643337   1.000000   1.000000
   14       -3.206813      0.355111   1.000000   1.000000
   15       -1.897524      0.697691   1.000000   1.000000
   16       -0.944276      1.652254   1.000000   1.000000
   17        0.149414      1.874664   1.000000   1.000000
   18        0.790084      2.071174   1.000000   1.000000
   19        1.230408      2.344721   1.000000   1.000000
   20        1.970729      4.918972   1.000000   0.000000
   21        2.378735      5.607832   1.000000   0.000000
   22        2.386352      6.112781   1.000000   0.000000
   23        2.660948      6.135535   1.007816   0.000000
   24        3.639369      7.398038   0.525149   0.000000
   25       11.336417     11.440537   0.000000   0.000000
   26       11.674042     11.744881   0.000000   0.000000
   27       12.412861     12.469615   0.000000   0.000000
   28       13.422437     13.481656   0.000000   0.000000
 
  0.2500000E+00  0.2500000E+00  0.8333333E-01  0.1111111E+00
    1      -53.338282    -49.239205   1.000000   1.000000
    2      -53.338107    -49.239014   1.000000   1.000000
    3      -53.337126    -49.237318   1.000000   1.000000
    4      -28.629773    -28.620108   1.000000   1.000000
    5      -14.863107    -14.698562   1.000000   1.000000
    6      -13.785253    -13.498274   1.000000   1.000000
    7      -13.578353    -13.182708   1.000000   1.000000
    8      -10.721059    -10.694235   1.000000   1.000000
    9      -10.606246    -10.544459   1.000000   1.000000
   10      -10.368631    -10.338257   1.000000   1.000000
   11       -3.663779     -1.708597   1.000000   1.000000
   12       -3.630891     -0.896689   1.000000   1.000000
   13       -3.420682     -0.589555   1.000000   1.000000
   14       -3.392495      0.142876   1.000000   1.000000
   15       -3.047004      0.973761   1.000000   1.000000
   16       -0.992153      1.270461   1.000000   1.000000
   17        0.700243      2.147331   1.000000   1.000000
   18        1.348986      2.251022   1.000000   1.000000
   19        1.526533      2.748541   1.000000   1.000000
   20        1.692807      5.481951   1.000000   0.000000
   21        1.918152      5.613746   1.000000   0.000000
   22        2.445415      5.753950   1.000000   0.000000
   23        2.869968      6.125856   1.021509   0.000000
   24        4.097514      7.399050   0.086729   0.000000
   25       10.909326     11.049709   0.000000   0.000000
   26       11.341998     11.425792   0.000000   0.000000
   27       12.376431     12.466879   0.000000   0.000000
   28       13.012960     13.151405   0.000000   0.000000
 
  0.4166667E+00  0.2500000E+00  0.8333333E-01  0.2222222E+00
    1      -53.339455    -49.240987   1.000000   1.000000
    2      -53.338138    -49.239015   1.000000   1.000000
    3      -53.336893    -49.237105   1.000000   1.000000
    4      -28.611870    -28.602349   1.000000   1.000000
    5      -14.775509    -14.586001   1.000000   1.000000
    6      -13.779734    -13.608504   1.000000   1.000000
    7      -13.571982    -13.191002   1.000000   1.000000
    8      -10.729461    -10.704024   1.000000   1.000000
    9      -10.504611    -10.471034   1.000000   1.000000
   10      -10.326547    -10.279281   1.000000   1.000000
   11       -4.475374     -2.067807   1.000000   1.000000
   12       -3.882480     -1.013381   1.000000   1.000000
   13       -3.573214     -0.604260   1.000000   1.000000
   14       -3.440297     -0.461173   1.000000   1.000000
   15       -3.257949      0.569852   1.000000   1.000000
   16       -0.847464      1.227446   1.000000   1.000000
   17        0.851701      1.858180   1.000000   1.000000
   18        1.078614      2.108857   1.000000   1.000000
   19        1.436307      2.857540   1.000000   1.000000
   20        1.722826      5.561142   1.000000   0.000000
   21        2.172295      6.105332   1.000000   0.000000
   22        2.637285      6.139456   1.000000   0.000000
   23        2.787956      6.219795   1.042803   0.000000
   24        4.641676      8.136482  -0.048548   0.000000
   25       11.702322     11.828046   0.000000   0.000000
   26       12.385056     12.448866   0.000000   0.000000
   27       12.776928     12.822782   0.000000   0.000000
   28       13.289253     13.263983   0.000000   0.000000
 
  0.4166667E+00  0.4166667E+00  0.8333333E-01  0.1111111E+00
    1      -53.339411    -49.240870   1.000000   1.000000
    2      -53.339374    -49.240840   1.000000   1.000000
    3      -53.336621    -49.236865   1.000000   1.000000
    4      -28.595536    -28.586121   1.000000   1.000000
    5      -14.371727    -14.167312   1.000000   1.000000
    6      -13.921654    -13.768858   1.000000   1.000000
    7      -13.720341    -13.443575   1.000000   1.000000
    8      -10.663644    -10.645917   1.000000   1.000000
    9      -10.463360    -10.421359   1.000000   1.000000
   10      -10.403876    -10.372541   1.000000   1.000000
   11       -4.655713     -2.416110   1.000000   1.000000
   12       -4.186256     -1.267226   1.000000   1.000000
   13       -4.126582     -1.197256   1.000000   1.000000
   14       -3.629703     -0.174108   1.000000   1.000000
   15       -3.620803      0.420446   1.000000   1.000000
   16       -0.649610      0.661844   1.000000   1.000000
   17        0.886284      1.968301   1.000000   1.000000
   18        1.553901      2.079110   1.000000   1.000000
   19        1.671189      3.376697   1.000000   1.000000
   20        1.735977      6.093158   1.000000   0.000000
   21        2.045356      6.129869   1.000000   0.000000
   22        2.377998      6.332490   1.000000   0.000000
   23        3.159750      6.365340   1.015592   0.000000
   24        5.485157      8.969366   0.000000   0.000000
   25       12.102841     12.170935   0.000000   0.000000
   26       12.403867     12.485540   0.000000   0.000000
   27       13.366095     13.522777   0.000000   0.000000
   28       13.464373     13.561480   0.000000   0.000000
 
  0.2500000E+00  0.2500000E+00  0.2500000E+00  0.3703704E-01
    1      -53.338059    -49.238914   1.000000   1.000000
    2      -53.338059    -49.238914   1.000000   1.000000
    3      -53.337932    -49.238903   1.000000   1.000000
    4      -28.613160    -28.603644   1.000000   1.000000
    5      -14.673315    -14.523057   1.000000   1.000000
    6      -13.675243    -13.373924   1.000000   1.000000
    7      -13.675243    -13.373924   1.000000   1.000000
    8      -10.760563    -10.708682   1.000000   1.000000
    9      -10.760563    -10.708682   1.000000   1.000000
   10      -10.305538    -10.281403   1.000000   1.000000
   11       -3.759246     -1.955321   1.000000   1.000000
   12       -3.642243     -0.870192   1.000000   1.000000
   13       -3.642243     -0.870192   1.000000   1.000000
   14       -3.561657      0.086179   1.000000   1.000000
   15       -3.561657      0.382224   1.000000   1.000000
   16       -1.940331      0.382224   1.000000   1.000000
   17        1.177888      2.519226   1.000000   1.000000
   18        1.557067      2.519226   1.000000   1.000000
   19        1.557067      2.898415   1.000000   1.000000
   20        1.873975      5.777930   1.000000   0.000000
   21        1.873975      5.860152   1.000000   0.000000
   22        2.686299      5.860153   1.000000   0.000000
   23        4.030917      7.382530   0.559097   0.000000
   24        4.030917      7.382536   0.027056   0.000000
   25       11.475370     11.612373   0.000000   0.000000
   26       11.477151     11.614689   0.000000   0.000000
   27       12.137362     12.184611   0.000000   0.000000
   28       13.197574     13.311035   0.000000   0.000000
 
  0.4166667E+00  0.2500000E+00  0.2500000E+00  0.1111111E+00
    1      -53.339487    -49.240923   1.000000   1.000000
    2      -53.338150    -49.238920   1.000000   1.000000
    3      -53.337982    -49.238858   1.000000   1.000000
    4      -28.596466    -28.587100   1.000000   1.000000
    5      -14.497905    -14.325852   1.000000   1.000000
    6      -13.745324    -13.575689   1.000000   1.000000
    7      -13.553542    -13.233567   1.000000   1.000000
    8      -10.928753    -10.891427   1.000000   1.000000
    9      -10.625840    -10.576977   1.000000   1.000000
   10      -10.414600    -10.386160   1.000000   1.000000
   11       -4.498441     -2.275268   1.000000   1.000000
   12       -3.919903     -1.028578   1.000000   1.000000
   13       -3.695394     -0.839742   1.000000   1.000000
   14       -3.644581     -0.537960   1.000000   1.000000
   15       -3.601987      0.035803   1.000000   1.000000
   16       -2.114508      0.442774   1.000000   1.000000
   17        1.100591      2.486748   1.000000   1.000000
   18        1.506773      2.665104   1.000000   1.000000
   19        1.615936      2.994499   1.000000   1.000000
   20        1.937357      5.897843   1.000000   0.000000
   21        2.485520      6.206757   1.000000   0.000000
   22        2.902239      6.241767   1.000000   0.000000
   23        3.916999      7.345075   0.466791   0.000000
   24        4.801981      8.312785  -0.012261   0.000000
   25       12.046155     12.153685   0.000000   0.000000
   26       12.105126     12.213045   0.000000   0.000000
   27       12.352686     12.455726   0.000000   0.000000
   28       12.887804     12.958410   0.000000   0.000000
 
  0.4166667E+00  0.4166667E+00  0.2500000E+00  0.1111111E+00
    1      -53.339326    -49.240731   1.000000   1.000000
    2      -53.339244    -49.240681   1.000000   1.000000
    3      -53.337960    -49.238741   1.000000   1.000000
    4      -28.580964    -28.571751   1.000000   1.000000
    5      -14.110019    -13.939210   1.000000   1.000000
    6      -13.749240    -13.588438   1.000000   1.000000
    7      -13.602336    -13.363928   1.000000   1.000000
    8      -10.960242    -10.923848   1.000000   1.000000
    9      -10.773697    -10.727222   1.000000   1.000000
   10      -10.615107    -10.580484   1.000000   1.000000
   11       -4.654240     -2.637946   1.000000   1.000000
   12       -4.271022     -1.257043   1.000000   1.000000
   13       -4.009830     -0.838390   1.000000   1.000000
   14       -3.733812     -0.747839   1.000000   1.000000
   15       -3.728532      0.039152   1.000000   1.000000
   16       -2.458465      0.042059   1.000000   1.000000
   17        1.233356      2.747490   1.000000   1.000000
   18        1.638344      2.816718   1.000000   1.000000
   19        1.667706      3.418707   1.000000   1.000000
   20        2.524085      6.281697   1.000000   0.000000
   21        2.625178      6.303229   1.000000   0.000000
   22        3.207130      6.429218   1.000000   0.000000
   23        4.179995      7.745199   0.116838   0.000000
   24        5.480558      8.963207   0.000000   0.000000
   25       11.777370     11.848064   0.000000   0.000000
   26       12.152445     12.262158   0.000000   0.000000
   27       12.207505     12.326653   0.000000   0.000000
   28       13.002716     13.083605   0.000000   0.000000
 
  0.4166667E+00  0.4166667E+00  0.4166667E+00  0.3703704E-01
    1      -53.339364    -49.240699   1.000000   1.000000
    2      -53.339271    -49.240606   1.000000   1.000000
    3      -53.339271    -49.240606   1.000000   1.000000
    4      -28.566334    -28.557330   1.000000   1.000000
    5      -13.760099    -13.612052   1.000000   1.000000
    6      -13.540363    -13.367610   1.000000   1.000000
    7      -13.540363    -13.367610   1.000000   1.000000
    8      -11.116261    -11.070907   1.000000   1.000000
    9      -11.116261    -11.070907   1.000000   1.000000
   10      -10.949088    -10.905999   1.000000   1.000000
   11       -4.652375     -3.031971   1.000000   1.000000
   12       -4.652375     -1.246417   1.000000   1.000000
   13       -3.890692     -1.246417   1.000000   1.000000
   14       -3.818270     -0.379953   1.000000   1.000000
   15       -3.818269     -0.194487   1.000000   1.000000
   16       -3.294462     -0.194487   1.000000   1.000000
   17        1.590444      3.363109   1.000000   1.000000
   18        1.724989      3.363109   1.000000   1.000000
   19        1.724989      3.504230   1.000000   1.000000
   20        3.139554      6.519410   1.000000   0.000000
   21        3.139554      6.533384   1.000000   0.000000
   22        3.284947      6.533385   1.000000   0.000000
   23        5.464296      8.947070   0.000000   0.000000
   24        5.464296      8.947073   0.000000   0.000000
   25       11.306705     11.401239   0.000000   0.000000
   26       11.383050     11.470220   0.000000   0.000000
   27       11.383071     11.470256   0.000000   0.000000
   28       13.853886     13.893520   0.000000   0.000000
