<?xml version="1.0" encoding="ISO-8859-1"?>
<modeling>
 <generator>
  <i name="program" type="string">vasp </i>
  <i name="version" type="string">5.4.1  </i>
  <i name="subversion" type="string">24Jun15 (build Jan 06 2016 13:10:00) complex                          parallel </i>
  <i name="platform" type="string">IFC91_ompi </i>
  <i name="date" type="string">2016 02 25 </i>
  <i name="time" type="string">14:39:12 </i>
 </generator>
 <incar>
  <i type="string" name="PREC">normal</i>
  <i type="string" name="ALGO"> Fast</i>
  <i type="int" name="ISPIN">     2</i>
  <i type="int" name="NELM">   100</i>
  <i type="int" name="IBRION">     1</i>
  <i name="EDIFF">      0.00100000</i>
  <i name="EDIFFG">     -0.01000000</i>
  <i type="int" name="NSW">    99</i>
  <i type="int" name="ISIF">     0</i>
  <i name="ENCUT">    300.00000000</i>
  <i type="string" name="LREAL">Auto</i>
  <i type="int" name="ISMEAR">    -5</i>
  <i name="SIGMA">      0.05000000</i>
  <i type="int" name="LMAXMIX">     4</i>
  <i type="logical" name="LWAVE"> F  </i>
  <v type="int" name="KPOINT_BSE">    -1     0     0     0</v>
  <i type="int" name="NELM">   100</i>
  <i type="logical" name="LDAU"> T  </i>
  <v type="int" name="LDAUTYPE">     2</v>
  <v type="int" name="LDAUL">     0     2     0</v>
  <v name="LDAUU">      0.00000000      5.30000000      0.00000000</v>
  <v name="LDAUJ">      0.00000000      0.00000000      0.00000000</v>
  <i type="int" name="LDAUPRINT">     1</i>
 </incar>
 <kpoints>
  <generation param="Monkhorst-Pack">
   <v type="int" name="divisions">       6        6        6 </v>
   <v name="usershift">      0.00000000       0.00000000       0.00000000 </v>
   <v name="genvec1">      0.16666667       0.00000000       0.00000000 </v>
   <v name="genvec2">      0.00000000       0.16666667       0.00000000 </v>
   <v name="genvec3">      0.00000000       0.00000000       0.16666667 </v>
   <v name="shift">      0.50000000       0.50000000       0.50000000 </v>
  </generation>
  <varray name="kpointlist" >
   <v>       0.08333333       0.08333333       0.08333333 </v>
   <v>       0.25000000       0.08333333       0.08333333 </v>
   <v>       0.41666667       0.08333333       0.08333333 </v>
   <v>       0.25000000       0.25000000       0.08333333 </v>
   <v>       0.41666667       0.25000000       0.08333333 </v>
   <v>       0.41666667       0.41666667       0.08333333 </v>
   <v>       0.25000000       0.25000000       0.25000000 </v>
   <v>       0.41666667       0.25000000       0.25000000 </v>
   <v>       0.41666667       0.41666667       0.25000000 </v>
   <v>       0.41666667       0.41666667       0.41666667 </v>
  </varray>
  <varray name="weights" >
   <v>       0.03703704 </v>
   <v>       0.11111111 </v>
   <v>       0.11111111 </v>
   <v>       0.11111111 </v>
   <v>       0.22222222 </v>
   <v>       0.11111111 </v>
   <v>       0.03703704 </v>
   <v>       0.11111111 </v>
   <v>       0.11111111 </v>
   <v>       0.03703704 </v>
  </varray>
  <varray name="tetrahedronlist"  type="int" >
   <v type="int" >       24        1        2        2        4 </v>
   <v type="int" >       18        2        2        4        4 </v>
   <v type="int" >       12        2        4        4        7 </v>
   <v type="int" >       12        2        3        4        5 </v>
   <v type="int" >       24        2        4        4        5 </v>
   <v type="int" >       12        4        4        5        7 </v>
   <v type="int" >       24        3        4        5        5 </v>
   <v type="int" >       24        4        5        5        8 </v>
   <v type="int" >       24        4        5        7        8 </v>
   <v type="int" >       30        3        3        5        5 </v>
   <v type="int" >       36        3        5        5        5 </v>
   <v type="int" >       12        5        5        5        8 </v>
   <v type="int" >        6        5        5        8        8 </v>
   <v type="int" >       18        1        1        2        2 </v>
   <v type="int" >       24        1        2        2        2 </v>
   <v type="int" >       12        2        2        2        4 </v>
   <v type="int" >       12        4        5        6        7 </v>
   <v type="int" >       12        5        6        7        8 </v>
   <v type="int" >       12        6        7        8        9 </v>
   <v type="int" >       24        5        5        6        8 </v>
   <v type="int" >       12        5        6        6        8 </v>
   <v type="int" >       12        6        6        8        9 </v>
   <v type="int" >       12        5        6        8        8 </v>
   <v type="int" >       12        6        8        8        9 </v>
   <v type="int" >       12        6        8        9        9 </v>
   <v type="int" >       12        5        6        8        9 </v>
   <v type="int" >       12        5        7        8        8 </v>
   <v type="int" >       24        5        8        8        9 </v>
   <v type="int" >       12        2        3        4        7 </v>
   <v type="int" >       12        3        4        5        7 </v>
   <v type="int" >       12        3        5        7        8 </v>
   <v type="int" >       12        2        2        3        4 </v>
   <v type="int" >       12        2        3        3        4 </v>
   <v type="int" >       12        3        3        4        5 </v>
   <v type="int" >       12        2        3        4        4 </v>
   <v type="int" >       12        3        4        4        5 </v>
   <v type="int" >       12        6        6        6        9 </v>
   <v type="int" >       12        6        6        9        9 </v>
   <v type="int" >       12        6        9        9        9 </v>
   <v type="int" >       12        5        5        6        9 </v>
   <v type="int" >       12        5        6        6        9 </v>
   <v type="int" >       12        5        6        9        9 </v>
   <v type="int" >       12        5        5        8        9 </v>
   <v type="int" >       12        5        8        9        9 </v>
   <v type="int" >       12        3        3        5        8 </v>
   <v type="int" >       12        3        5        5        8 </v>
   <v type="int" >       12        3        5        8        8 </v>
   <v type="int" >       24        3        3        3        5 </v>
   <v type="int" >       12        4        5        6        9 </v>
   <v type="int" >       12        4        5        8        9 </v>
   <v type="int" >       12        4        7        8        9 </v>
   <v type="int" >       12        2        3        5        8 </v>
   <v type="int" >       12        2        4        5        8 </v>
   <v type="int" >       12        2        4        7        8 </v>
   <v type="int" >       12        2        3        3        5 </v>
   <v type="int" >       12        2        2        3        5 </v>
   <v type="int" >       12        2        2        4        5 </v>
   <v type="int" >       12        2        3        5        5 </v>
   <v type="int" >       12        2        4        5        5 </v>
   <v type="int" >       12        1        2        4        7 </v>
   <v type="int" >       12        1        1        2        4 </v>
   <v type="int" >       12        1        2        4        4 </v>
   <v type="int" >       12        1        1        1        2 </v>
   <v type="int" >       12        7        8        8        9 </v>
   <v type="int" >       18        8        8        9        9 </v>
   <v type="int" >       24        8        9        9       10 </v>
   <v type="int" >       12        8        9        9        9 </v>
   <v type="int" >       24        9        9        9       10 </v>
   <v type="int" >       18        9        9       10       10 </v>
   <v type="int" >        6        4        4        5        5 </v>
   <v type="int" >       12        4        5        5        5 </v>
   <v type="int" >       36        5        5        5        6 </v>
   <v type="int" >       30        5        5        6        6 </v>
   <v type="int" >       12        9       10       10       10 </v>
   <v type="int" >       12        8        8        9       10 </v>
   <v type="int" >       12        8        9       10       10 </v>
   <v type="int" >       24        5        6        6        6 </v>
   <v type="int" >       12        7        8        9       10 </v>
   <v type="int" >       12        4        5        5        6 </v>
   <v type="int" >       12        4        4        5        6 </v>
   <v type="int" >       12        4        5        6        6 </v>
   <v type="int" >       12        2        2        2        3 </v>
   <v type="int" >       12        2        2        3        3 </v>
   <v type="int" >       12        2        3        3        3 </v>
   <v type="int" >        6       10       10       10       10 </v>
   <v type="int" >       18        6        6        6        6 </v>
   <v type="int" >       18        3        3        3        3 </v>
   <v type="int" >        6        1        1        1        1 </v>
  </varray>
  <i name="volumeweight">      0.00077160 </i>
 </kpoints>
 <parameters>
  <separator name="general" >
   <i type="string" name="SYSTEM">unknown system</i>
   <i type="logical" name="LCOMPAT"> F  </i>
  </separator>
  <separator name="electronic" >
   <i type="string" name="PREC">normal</i>
   <i name="ENMAX">    300.00000000</i>
   <i name="ENAUG">    578.34200000</i>
   <i name="EDIFF">      0.00100000</i>
   <i type="int" name="IALGO">    68</i>
   <i type="int" name="IWAVPR">    11</i>
   <i type="int" name="NBANDS">    28</i>
   <i name="NELECT">     42.00000000</i>
   <i type="int" name="TURBO">     0</i>
   <i type="int" name="IRESTART">     0</i>
   <i type="int" name="NREBOOT">     0</i>
   <i type="int" name="NMIN">     0</i>
   <i name="EREF">      0.00000000</i>
   <separator name="electronic smearing" >
    <i type="int" name="ISMEAR">    -5</i>
    <i name="SIGMA">      0.05000000</i>
    <i name="KSPACING">      0.50000000</i>
    <i type="logical" name="KGAMMA"> T  </i>
   </separator>
   <separator name="electronic projectors" >
    <i type="logical" name="LREAL"> T  </i>
    <v name="ROPT">     -0.00050000     -0.00050000     -0.00050000</v>
    <i type="int" name="LMAXPAW">  -100</i>
    <i type="int" name="LMAXMIX">     4</i>
    <i type="logical" name="NLSPLINE"> F  </i>
   </separator>
   <separator name="electronic startup" >
    <i type="int" name="ISTART">     0</i>
    <i type="int" name="ICHARG">     2</i>
    <i type="int" name="INIWAV">     1</i>
   </separator>
   <separator name="electronic spin" >
    <i type="int" name="ISPIN">     2</i>
    <i type="logical" name="LNONCOLLINEAR"> F  </i>
    <v name="MAGMOM">      1.00000000      1.00000000      1.00000000      1.00000000      1.00000000</v>
    <i name="NUPDOWN">     -1.00000000</i>
    <i type="logical" name="LSORBIT"> F  </i>
    <v name="SAXIS">      0.00000000      0.00000000      1.00000000</v>
    <i type="logical" name="LSPIRAL"> F  </i>
    <v name="QSPIRAL">      0.00000000      0.00000000      0.00000000</v>
    <i type="logical" name="LZEROZ"> F  </i>
   </separator>
   <separator name="electronic exchange-correlation" >
    <i type="logical" name="LASPH"> F  </i>
    <i type="logical" name="LMETAGGA"> F  </i>
   </separator>
   <separator name="electronic convergence" >
    <i type="int" name="NELM">   100</i>
    <i type="int" name="NELMDL">    -5</i>
    <i type="int" name="NELMIN">     2</i>
    <i name="ENINI">    300.00000000</i>
    <separator name="electronic convergence detail" >
     <i type="logical" name="LDIAG"> T  </i>
     <i type="logical" name="LSUBROT"> F  </i>
     <i name="WEIMIN">      0.00100000</i>
     <i name="EBREAK">      0.00000893</i>
     <i name="DEPER">      0.30000000</i>
     <i type="int" name="NRMM">     4</i>
     <i name="TIME">      0.40000000</i>
    </separator>
   </separator>
   <separator name="electronic mixer" >
    <i name="AMIX">      0.40000000</i>
    <i name="BMIX">      1.00000000</i>
    <i name="AMIN">      0.10000000</i>
    <i name="AMIX_MAG">      1.60000000</i>
    <i name="BMIX_MAG">      1.00000000</i>
    <separator name="electronic mixer details" >
     <i type="int" name="IMIX">     4</i>
     <i type="logical" name="MIXFIRST"> F  </i>
     <i type="int" name="MAXMIX">   -45</i>
     <i name="WC">    100.00000000</i>
     <i type="int" name="INIMIX">     1</i>
     <i type="int" name="MIXPRE">     1</i>
     <i type="int" name="MREMOVE">     5</i>
    </separator>
   </separator>
   <separator name="electronic dipolcorrection" >
    <i type="logical" name="LDIPOL"> F  </i>
    <i type="logical" name="LMONO"> F  </i>
    <i type="int" name="IDIPOL">     0</i>
    <i name="EPSILON">      1.00000000</i>
    <v name="DIPOL">   -100.00000000   -100.00000000   -100.00000000</v>
    <i name="EFIELD">      0.00000000</i>
   </separator>
  </separator>
  <separator name="grids" >
   <i type="int" name="NGX">    16</i>
   <i type="int" name="NGY">    16</i>
   <i type="int" name="NGZ">    16</i>
   <i type="int" name="NGXF">    32</i>
   <i type="int" name="NGYF">    32</i>
   <i type="int" name="NGZF">    32</i>
   <i type="logical" name="ADDGRID"> F  </i>
  </separator>
  <separator name="ionic" >
   <i type="int" name="NSW">    99</i>
   <i type="int" name="IBRION">     1</i>
   <i type="int" name="ISIF">     0</i>
   <i name="PSTRESS">      0.00000000</i>
   <i name="EDIFFG">     -0.01000000</i>
   <i type="int" name="NFREE">     0</i>
   <i name="POTIM">      0.50000000</i>
   <i name="SMASS">     -3.00000000</i>
   <i name="SCALEE">      1.00000000</i>
  </separator>
  <separator name="ionic md" >
   <i name="TEBEG">      0.00010000</i>
   <i name="TEEND">      0.00010000</i>
   <i type="int" name="NBLOCK">     1</i>
   <i type="int" name="KBLOCK">    99</i>
   <i type="int" name="NPACO">   256</i>
   <i name="APACO">     16.00000000</i>
  </separator>
  <separator name="symmetry" >
   <i type="int" name="ISYM">     2</i>
   <i name="SYMPREC">      0.00001000</i>
  </separator>
  <separator name="dos" >
   <i type="logical" name="LORBIT"> F  </i>
   <v name="RWIGS">     -1.00000000     -1.00000000     -1.00000000</v>
   <i type="int" name="NEDOS">   301</i>
   <i name="EMIN">     10.00000000</i>
   <i name="EMAX">    -10.00000000</i>
   <i name="EFERMI">      0.00000000</i>
  </separator>
  <separator name="writing" >
   <i type="int" name="NWRITE">     2</i>
   <i type="logical" name="LWAVE"> F  </i>
   <i type="logical" name="LCHARG"> T  </i>
   <i type="logical" name="LPARD"> F  </i>
   <i type="logical" name="LVTOT"> F  </i>
   <i type="logical" name="LVHAR"> F  </i>
   <i type="logical" name="LELF"> F  </i>
   <i type="logical" name="LOPTICS"> F  </i>
   <v name="STM">      0.00000000      0.00000000      0.00000000      0.00000000      0.00000000      0.00000000      0.00000000</v>
  </separator>
  <separator name="performance" >
   <i type="int" name="NPAR">     2</i>
   <i type="int" name="NSIM">     4</i>
   <i type="int" name="NBLK">    -1</i>
   <i type="logical" name="LPLANE"> T  </i>
   <i type="logical" name="LSCALAPACK"> T  </i>
   <i type="logical" name="LSCAAWARE"> F  </i>
   <i type="logical" name="LSCALU"> F  </i>
   <i type="logical" name="LASYNC"> F  </i>
   <i type="logical" name="LORBITALREAL"> F  </i>
  </separator>
  <separator name="miscellaneous" >
   <i type="int" name="IDIOT">     3</i>
   <i type="logical" name="LMUSIC"> F  </i>
   <v name="POMASS">     87.62000000     55.84700000     16.00000000</v>
   <v name="DARWINR">      0.00000000      0.00000000      0.00000000</v>
   <v name="DARWINV">      1.00000000      1.00000000      1.00000000</v>
   <i type="logical" name="LCORR"> T  </i>
  </separator>
  <i type="logical" name="GGA_COMPAT"> T  </i>
  <i type="logical" name="LBERRY"> F  </i>
  <i type="int" name="ICORELEVEL">     0</i>
  <i type="logical" name="LDAU"> T  </i>
  <v type="int" name="LDAUTYPE">     2</v>
  <v type="int" name="LDAUL">     0</v>
  <v name="LDAUU">      0.00000000</v>
  <v name="LDAUJ">      0.00000000</v>
  <i type="int" name="LDAUPRINT">     1</i>
  <i type="int" name="I_CONSTRAINED_M">     0</i>
  <separator name="electronic exchange-correlation" >
   <i type="string" name="GGA">--</i>
   <i type="int" name="VOSKOWN">     0</i>
   <i type="logical" name="LHFCALC"> F  </i>
   <i type="string" name="PRECFOCK"></i>
   <i type="logical" name="LSYMGRAD"> F  </i>
   <i type="logical" name="LHFONE"> F  </i>
   <i type="logical" name="LRHFCALC"> F  </i>
   <i type="logical" name="LTHOMAS"> F  </i>
   <i type="logical" name="LMODELHF"> F  </i>
   <i name="ENCUT4O">     -1.00000000</i>
   <i type="int" name="EXXOEP">     0</i>
   <i type="int" name="FOURORBIT">     0</i>
   <i name="AEXX">      0.00000000</i>
   <i name="HFALPHA">      0.00000000</i>
   <i name="MCALPHA">      0.00000000</i>
   <i name="ALDAX">      1.00000000</i>
   <i name="AGGAX">      1.00000000</i>
   <i name="ALDAC">      1.00000000</i>
   <i name="AGGAC">      1.00000000</i>
   <i type="int" name="NKREDX">     1</i>
   <i type="int" name="NKREDY">     1</i>
   <i type="int" name="NKREDZ">     1</i>
   <i type="logical" name="SHIFTRED"> F  </i>
   <i type="logical" name="ODDONLY"> F  </i>
   <i type="logical" name="EVENONLY"> F  </i>
   <i type="int" name="LMAXFOCK">     0</i>
   <i type="int" name="NMAXFOCKAE">     0</i>
   <i type="logical" name="LFOCKAEDFT"> F  </i>
   <i name="HFSCREEN">      0.00000000</i>
   <i name="HFSCREENC">      0.00000000</i>
   <i type="int" name="NBANDSGWLOW">     0</i>
  </separator>
  <separator name="vdW DFT" >
   <i type="logical" name="LUSE_VDW"> F  </i>
   <i name="Zab_VDW">     -0.84910000</i>
   <i name="PARAM1">      0.12340000</i>
   <i name="PARAM2">      1.00000000</i>
   <i name="PARAM3">      0.00000000</i>
  </separator>
  <separator name="model GW" >
   <i type="int" name="MODEL_GW">     0</i>
   <i name="MODEL_EPS0">      6.32812500</i>
   <i name="MODEL_ALPHA">      1.00000000</i>
  </separator>
  <separator name="linear response parameters" >
   <i type="logical" name="LEPSILON"> F  </i>
   <i type="logical" name="LRPA"> F  </i>
   <i type="logical" name="LNABLA"> F  </i>
   <i type="logical" name="LVEL"> F  </i>
   <i type="int" name="KINTER">     0</i>
   <i name="CSHIFT">      0.10000000</i>
   <i name="OMEGAMAX">     -1.00000000</i>
   <i name="DEG_THRESHOLD">      0.00200000</i>
  </separator>
  <separator name="orbital magnetization" >
   <i type="logical" name="NUCIND"> F  </i>
   <v name="MAGPOS">      0.00000000      0.00000000      0.00000000</v>
   <i type="logical" name="LNICSALL"> T  </i>
   <i type="logical" name="ORBITALMAG"> F  </i>
   <i type="logical" name="LMAGBLOCH"> F  </i>
   <i type="logical" name="LCHIMAG"> F  </i>
   <i type="logical" name="LGAUGE"> T  </i>
   <i type="int" name="MAGATOM">     0</i>
   <v name="MAGDIPOL">      0.00000000      0.00000000      0.00000000</v>
   <v name="AVECCONST">      0.00000000      0.00000000      0.00000000</v>
  </separator>
  <separator name="response functions" >
   <i type="logical" name="LADDER"> F  </i>
   <i type="logical" name="LFXC"> F  </i>
   <i type="logical" name="LHARTREE"> T  </i>
   <i type="int" name="IBSE">     0</i>
   <v type="int" name="KPOINT">    -1     0     0     0</v>
   <i type="logical" name="LTCTE"> F  </i>
   <i type="logical" name="LTETE"> F  </i>
   <i type="logical" name="LTRIPLET"> F  </i>
   <i type="logical" name="LFXCEPS"> F  </i>
   <i type="logical" name="LFXHEG"> F  </i>
   <i type="int" name="NATURALO">     0</i>
   <i type="logical" name="L2ORDER"> F  </i>
   <i type="logical" name="LUSEW"> F  </i>
   <i name="ENCUTGW">     -2.00000000</i>
   <i name="ENCUTGWSOFT">     -2.00000000</i>
   <i name="ENCUTLF">     -1.00000000</i>
   <i type="int" name="LMAXMP2">    -1</i>
   <i name="SCISSOR">      0.00000000</i>
   <i type="int" name="NOMEGA">     0</i>
   <i type="int" name="NOMEGAR">     0</i>
   <i type="int" name="NBANDSGW">    -1</i>
   <i type="int" name="NBANDSO">    -1</i>
   <i type="int" name="NBANDSV">    -1</i>
   <i type="int" name="NELM">   100</i>
   <i type="int" name="NELMHF">     1</i>
   <i type="int" name="DIM">     3</i>
   <i type="int" name="ANTIRES">     0</i>
   <i name="OMEGAMAX">    -30.00000000</i>
   <i name="OMEGAMIN">    -30.00000000</i>
   <i name="OMEGATL">   -200.00000000</i>
   <i type="int" name="OMEGAGRID">     0</i>
   <i name="CSHIFT">     -0.10000000</i>
   <i type="logical" name="SELFENERGY"> F  </i>
   <i type="logical" name="LSPECTRAL"> F  </i>
   <i type="logical" name="LSPECTRALGW"> F  </i>
   <i type="logical" name="LSINGLES"> F  </i>
   <i type="logical" name="LFERMIGW"> F  </i>
   <i type="logical" name="ODDONLYGW"> F  </i>
   <i type="logical" name="EVENONLYGW"> F  </i>
   <i type="int" name="NKREDLFX">     1</i>
   <i type="int" name="NKREDLFY">     1</i>
   <i type="int" name="NKREDLFZ">     1</i>
   <i type="int" name="MAXMEM">  1800</i>
   <i type="int" name="TELESCOPE">     0</i>
   <i type="int" name="TAUPAR">     1</i>
   <i type="int" name="OMEGAPAR">    -1</i>
   <i name="LAMBDA">      1.00000000</i>
  </separator>
  <separator name="External order field" >
   <i name="OFIELD_KAPPA">      0.00000000</i>
   <v name="OFIELD_K">      0.00000000      0.00000000      0.00000000</v>
   <i name="OFIELD_Q6_NEAR">      0.00000000</i>
   <i name="OFIELD_Q6_FAR">      0.00000000</i>
   <i name="OFIELD_A">      0.00000000</i>
  </separator>
  <separator name="solvation model" >
   <i type="logical" name="LSOL"> F  </i>
  </separator>
 </parameters>
 <atominfo>
  <atoms>       5 </atoms>
  <types>       3 </types>
  <array name="atoms" >
   <dimension dim="1">ion</dimension>
   <field type="string">element</field>
   <field type="int">atomtype</field>
   <set>
    <rc><c>Sr</c><c>   1</c></rc>
    <rc><c>Fe</c><c>   2</c></rc>
    <rc><c>O </c><c>   3</c></rc>
    <rc><c>O </c><c>   3</c></rc>
    <rc><c>O </c><c>   3</c></rc>
   </set>
  </array>
  <array name="atomtypes" >
   <dimension dim="1">type</dimension>
   <field type="int">atomspertype</field>
   <field type="string">element</field>
   <field>mass</field>
   <field>valence</field>
   <field type="string">pseudopotential</field>
   <set>
    <rc><c>   1</c><c>Sr</c><c>     87.62000000</c><c>     10.00000000</c><c>  PAW Sr                                </c></rc>
    <rc><c>   1</c><c>Fe</c><c>     55.84700000</c><c>     14.00000000</c><c>  PAW Fe                                </c></rc>
    <rc><c>   3</c><c>O </c><c>     16.00000000</c><c>      6.00000000</c><c>  PAW O_s                               </c></rc>
   </set>
  </array>
 </atominfo>
 <structure name="initialpos" >
  <crystal>
   <varray name="basis" >
    <v>       3.75000000       0.00000000       0.00000000 </v>
    <v>       0.00000000       3.75000000       0.00000000 </v>
    <v>       0.00000000       0.00000000       3.75000000 </v>
   </varray>
   <i name="volume">     52.73437500 </i>
   <varray name="rec_basis" >
    <v>       0.26666667       0.00000000       0.00000000 </v>
    <v>       0.00000000       0.26666667       0.00000000 </v>
    <v>       0.00000000       0.00000000       0.26666667 </v>
   </varray>
  </crystal>
  <varray name="positions" >
   <v>       0.50000000       0.50000000       0.50000000 </v>
   <v>       0.00000000       0.00000000       0.00000000 </v>
   <v>       0.50000000       0.00000000       0.00000000 </v>
   <v>       0.00000000       0.50000000       0.00000000 </v>
   <v>       0.00000000       0.00000000       0.50000000 </v>
  </varray>
 </structure>
 <calculation>
  <scstep>
   <time name="dav">    0.38    0.38</time>
   <time name="total">    0.46    0.46</time>
   <energy>
    <i name="alphaZ">    325.93766354 </i>
    <i name="ewald">  -3368.95996588 </i>
    <i name="hartreedc">  -1231.39012251 </i>
    <i name="XCdc">    191.91850618 </i>
    <i name="pawpsdc">   3241.81915236 </i>
    <i name="pawaedc">  -3317.81696278 </i>
    <i name="eentropy">      0.00000000 </i>
    <i name="bandstr">   -105.30943501 </i>
    <i name="atom">   4601.94837920 </i>
    <i name="e_fr_energy">    338.14721511 </i>
    <i name="e_wo_entrp">    338.14721511 </i>
    <i name="e_0_energy">    338.14721511 </i>
   </energy>
  </scstep>
  <scstep>
   <time name="dav">    0.35    0.35</time>
   <time name="total">    0.37    0.37</time>
   <energy>
    <i name="e_fr_energy">    -17.79655802 </i>
    <i name="e_wo_entrp">    -17.79655802 </i>
    <i name="e_0_energy">    -17.79655802 </i>
   </energy>
  </scstep>
  <scstep>
   <time name="dav">    0.43    0.43</time>
   <time name="total">    0.45    0.45</time>
   <energy>
    <i name="e_fr_energy">    -36.65462822 </i>
    <i name="e_wo_entrp">    -36.65462822 </i>
    <i name="e_0_energy">    -36.65462822 </i>
   </energy>
  </scstep>
  <scstep>
   <time name="dav">    0.54    0.54</time>
   <time name="total">    0.55    0.56</time>
   <energy>
    <i name="e_fr_energy">    -37.52202283 </i>
    <i name="e_wo_entrp">    -37.52202283 </i>
    <i name="e_0_energy">    -37.52202283 </i>
   </energy>
  </scstep>
  <scstep>
   <time name="dav">    0.41    0.41</time>
   <time name="total">    0.45    0.45</time>
   <energy>
    <i name="e_fr_energy">    -37.52964709 </i>
    <i name="e_wo_entrp">    -37.52964709 </i>
    <i name="e_0_energy">    -37.52964709 </i>
   </energy>
  </scstep>
  <scstep>
   <time name="diag">    0.07    0.07</time>
   <time name="diis">    0.16    0.16</time>
   <time name="orth">    0.01    0.01</time>
   <time name="total">    0.34    0.34</time>
   <energy>
    <i name="e_fr_energy">    -40.88671041 </i>
    <i name="e_wo_entrp">    -40.88671041 </i>
    <i name="e_0_energy">    -40.88671041 </i>
   </energy>
  </scstep>
  <scstep>
   <time name="diag">    0.07    0.07</time>
   <time name="diis">    0.15    0.15</time>
   <time name="orth">    0.01    0.01</time>
   <time name="total">    0.32    0.32</time>
   <energy>
    <i name="e_fr_energy">    -31.50479290 </i>
    <i name="e_wo_entrp">    -31.50479290 </i>
    <i name="e_0_energy">    -31.50479290 </i>
   </energy>
  </scstep>
  <scstep>
   <time name="diag">    0.07    0.07</time>
   <time name="diis">    0.16    0.16</time>
   <time name="orth">    0.01    0.01</time>
   <time name="total">    0.33    0.33</time>
   <energy>
    <i name="e_fr_energy">    -31.06273992 </i>
    <i name="e_wo_entrp">    -31.06273992 </i>
    <i name="e_0_energy">    -31.06273992 </i>
   </energy>
  </scstep>
  <scstep>
   <time name="diag">    0.07    0.07</time>
   <time name="diis">    0.14    0.15</time>
   <time name="orth">    0.01    0.01</time>
   <time name="total">    0.32    0.32</time>
   <energy>
    <i name="e_fr_energy">    -31.31177276 </i>
    <i name="e_wo_entrp">    -31.31177276 </i>
    <i name="e_0_energy">    -31.31177276 </i>
   </energy>
  </scstep>
  <scstep>
   <time name="diag">    0.07    0.07</time>
   <time name="diis">    0.15    0.15</time>
   <time name="orth">    0.01    0.01</time>
   <time name="total">    0.32    0.32</time>
   <energy>
    <i name="e_fr_energy">    -31.07468353 </i>
    <i name="e_wo_entrp">    -31.07468353 </i>
    <i name="e_0_energy">    -31.07468353 </i>
   </energy>
  </scstep>
  <scstep>
   <time name="diag">    0.07    0.07</time>
   <time name="diis">    0.15    0.15</time>
   <time name="orth">    0.01    0.01</time>
   <time name="total">    0.32    0.32</time>
   <energy>
    <i name="e_fr_energy">    -31.03132839 </i>
    <i name="e_wo_entrp">    -31.03132839 </i>
    <i name="e_0_energy">    -31.03132839 </i>
   </energy>
  </scstep>
  <scstep>
   <time name="diag">    0.07    0.07</time>
   <time name="diis">    0.14    0.14</time>
   <time name="orth">    0.01    0.01</time>
   <time name="total">    0.31    0.31</time>
   <energy>
    <i name="e_fr_energy">    -31.04352878 </i>
    <i name="e_wo_entrp">    -31.04352878 </i>
    <i name="e_0_energy">    -31.04352878 </i>
   </energy>
  </scstep>
  <scstep>
   <time name="diag">    0.07    0.07</time>
   <time name="diis">    0.11    0.11</time>
   <time name="orth">    0.01    0.01</time>
   <time name="total">    0.29    0.29</time>
   <energy>
    <i name="e_fr_energy">    -31.04044914 </i>
    <i name="e_wo_entrp">    -31.04044914 </i>
    <i name="e_0_energy">    -31.04044914 </i>
   </energy>
  </scstep>
  <scstep>
   <time name="diag">    0.07    0.07</time>
   <time name="diis">    0.10    0.10</time>
   <time name="orth">    0.01    0.01</time>
   <time name="total">    0.28    0.28</time>
   <energy>
    <i name="e_fr_energy">    -31.03928455 </i>
    <i name="e_wo_entrp">    -31.03928455 </i>
    <i name="e_0_energy">    -31.03928455 </i>
   </energy>
  </scstep>
  <scstep>
   <time name="diag">    0.07    0.07</time>
   <time name="diis">    0.09    0.09</time>
   <time name="orth">    0.01    0.01</time>
   <time name="total">    0.25    0.25</time>
   <energy>
    <i name="alphaZ">    325.93766354 </i>
    <i name="ewald">  -3368.95996588 </i>
    <i name="hartreedc">  -1182.49546113 </i>
    <i name="XCdc">    193.04473910 </i>
    <i name="pawpsdc">   3549.22882653 </i>
    <i name="pawaedc">  -3637.19856782 </i>
    <i name="eentropy">      0.00000000 </i>
    <i name="bandstr">   -512.54502816 </i>
    <i name="atom">   4601.94837920 </i>
    <i name="e_fr_energy">    -31.03941462 </i>
    <i name="e_wo_entrp">    -31.03941462 </i>
    <i name="e_0_energy">    -31.03941462 </i>
   </energy>
  </scstep>
  <structure>
   <crystal>
    <varray name="basis" >
     <v>       3.75000000       0.00000000       0.00000000 </v>
     <v>       0.00000000       3.75000000       0.00000000 </v>
     <v>       0.00000000       0.00000000       3.75000000 </v>
    </varray>
    <i name="volume">     52.73437500 </i>
    <varray name="rec_basis" >
     <v>       0.26666667       0.00000000       0.00000000 </v>
     <v>       0.00000000       0.26666667       0.00000000 </v>
     <v>       0.00000000       0.00000000       0.26666667 </v>
    </varray>
   </crystal>
   <varray name="positions" >
    <v>       0.50000000       0.50000000       0.50000000 </v>
    <v>       0.00000000       0.00000000       0.00000000 </v>
    <v>       0.50000000       0.00000000       0.00000000 </v>
    <v>       0.00000000       0.50000000       0.00000000 </v>
    <v>       0.00000000       0.00000000       0.50000000 </v>
   </varray>
  </structure>
  <varray name="forces" >
   <v>       0.00000000       0.00000000       0.00000000 </v>
   <v>       0.00000000       0.00000000       0.00000000 </v>
   <v>       0.00000000       0.00000000       0.00000000 </v>
   <v>       0.00000000       0.00000000       0.00000000 </v>
   <v>       0.00000000       0.00000000       0.00000000 </v>
  </varray>
  <energy>
   <i name="e_fr_energy">    -31.03941462 </i>
   <i name="e_wo_entrp">    -31.03941462 </i>
   <i name="e_0_energy">      0.00000000 </i>
  </energy>
  <time name="totalsc">    5.67    5.70</time>
  <eigenvalues>
   <array>
    <dimension dim="1">band</dimension>
    <dimension dim="2">kpoint</dimension>
    <dimension dim="3">spin</dimension>
    <field>eigene</field>
    <field>occ</field>
    <set>
     <set comment="spin 1">
      <set comment="kpoint 1">
       <r>  -53.3372    1.0000 </r>
       <r>  -53.3371    1.0000 </r>
       <r>  -53.3371    1.0000 </r>
       <r>  -28.6668    1.0000 </r>
       <r>  -15.0157    1.0000 </r>
       <r>  -13.6314    1.0000 </r>
       <r>  -13.6314    1.0000 </r>
       <r>  -10.7545    1.0000 </r>
       <r>  -10.7545    1.0000 </r>
       <r>  -10.6657    1.0000 </r>
       <r>   -3.1996    1.0000 </r>
       <r>   -3.1996    1.0000 </r>
       <r>   -3.1866    1.0000 </r>
       <r>   -1.8862    1.0000 </r>
       <r>   -1.8862    1.0000 </r>
       <r>   -1.0026    1.0000 </r>
       <r>    0.1403    1.0000 </r>
       <r>    0.1403    1.0000 </r>
       <r>    1.9140    1.0000 </r>
       <r>    1.9140    1.0000 </r>
       <r>    2.1465    1.0000 </r>
       <r>    2.5057    1.0000 </r>
       <r>    3.0167    1.0005 </r>
       <r>    3.0167    1.0501 </r>
       <r>    9.6028    0.0000 </r>
       <r>    9.6028    0.0000 </r>
       <r>   11.3387    0.0000 </r>
       <r>   12.1580    0.0000 </r>
      </set>
      <set comment="kpoint 2">
       <r>  -53.3384    1.0000 </r>
       <r>  -53.3371    1.0000 </r>
       <r>  -53.3370    1.0000 </r>
       <r>  -28.6475    1.0000 </r>
       <r>  -15.0050    1.0000 </r>
       <r>  -13.6865    1.0000 </r>
       <r>  -13.5959    1.0000 </r>
       <r>  -10.7429    1.0000 </r>
       <r>  -10.6837    1.0000 </r>
       <r>  -10.4212    1.0000 </r>
       <r>   -3.4450    1.0000 </r>
       <r>   -3.3672    1.0000 </r>
       <r>   -3.3516    1.0000 </r>
       <r>   -3.1998    1.0000 </r>
       <r>   -1.8846    1.0000 </r>
       <r>   -1.0047    1.0000 </r>
       <r>    0.1711    1.0000 </r>
       <r>    0.9430    1.0000 </r>
       <r>    1.5300    1.0000 </r>
       <r>    1.9544    1.0000 </r>
       <r>    2.1924    1.0000 </r>
       <r>    2.2032    1.0000 </r>
       <r>    2.8902    1.0042 </r>
       <r>    3.3694    0.9002 </r>
       <r>   10.4221    0.0000 </r>
       <r>   10.5125    0.0000 </r>
       <r>   12.1722    0.0000 </r>
       <r>   12.4976    0.0000 </r>
      </set>
      <set comment="kpoint 3">
       <r>  -53.3396    1.0000 </r>
       <r>  -53.3371    1.0000 </r>
       <r>  -53.3370    1.0000 </r>
       <r>  -28.6281    1.0000 </r>
       <r>  -15.0632    1.0000 </r>
       <r>  -13.6133    1.0000 </r>
       <r>  -13.5594    1.0000 </r>
       <r>  -10.7319    1.0000 </r>
       <r>  -10.6206    1.0000 </r>
       <r>  -10.2076    1.0000 </r>
       <r>   -4.4383    1.0000 </r>
       <r>   -3.5699    1.0000 </r>
       <r>   -3.5140    1.0000 </r>
       <r>   -3.2068    1.0000 </r>
       <r>   -1.8975    1.0000 </r>
       <r>   -0.9443    1.0000 </r>
       <r>    0.1494    1.0000 </r>
       <r>    0.7901    1.0000 </r>
       <r>    1.2304    1.0000 </r>
       <r>    1.9707    1.0000 </r>
       <r>    2.3787    1.0000 </r>
       <r>    2.3864    1.0000 </r>
       <r>    2.6609    1.0078 </r>
       <r>    3.6394    0.5251 </r>
       <r>   11.3364    0.0000 </r>
       <r>   11.6740    0.0000 </r>
       <r>   12.4129    0.0000 </r>
       <r>   13.4224    0.0000 </r>
      </set>
      <set comment="kpoint 4">
       <r>  -53.3383    1.0000 </r>
       <r>  -53.3381    1.0000 </r>
       <r>  -53.3371    1.0000 </r>
       <r>  -28.6298    1.0000 </r>
       <r>  -14.8631    1.0000 </r>
       <r>  -13.7853    1.0000 </r>
       <r>  -13.5784    1.0000 </r>
       <r>  -10.7211    1.0000 </r>
       <r>  -10.6062    1.0000 </r>
       <r>  -10.3686    1.0000 </r>
       <r>   -3.6638    1.0000 </r>
       <r>   -3.6309    1.0000 </r>
       <r>   -3.4207    1.0000 </r>
       <r>   -3.3925    1.0000 </r>
       <r>   -3.0470    1.0000 </r>
       <r>   -0.9922    1.0000 </r>
       <r>    0.7002    1.0000 </r>
       <r>    1.3490    1.0000 </r>
       <r>    1.5265    1.0000 </r>
       <r>    1.6928    1.0000 </r>
       <r>    1.9182    1.0000 </r>
       <r>    2.4454    1.0000 </r>
       <r>    2.8700    1.0215 </r>
       <r>    4.0975    0.0867 </r>
       <r>   10.9093    0.0000 </r>
       <r>   11.3420    0.0000 </r>
       <r>   12.3764    0.0000 </r>
       <r>   13.0130    0.0000 </r>
      </set>
      <set comment="kpoint 5">
       <r>  -53.3395    1.0000 </r>
       <r>  -53.3381    1.0000 </r>
       <r>  -53.3369    1.0000 </r>
       <r>  -28.6119    1.0000 </r>
       <r>  -14.7755    1.0000 </r>
       <r>  -13.7797    1.0000 </r>
       <r>  -13.5720    1.0000 </r>
       <r>  -10.7295    1.0000 </r>
       <r>  -10.5046    1.0000 </r>
       <r>  -10.3265    1.0000 </r>
       <r>   -4.4754    1.0000 </r>
       <r>   -3.8825    1.0000 </r>
       <r>   -3.5732    1.0000 </r>
       <r>   -3.4403    1.0000 </r>
       <r>   -3.2579    1.0000 </r>
       <r>   -0.8475    1.0000 </r>
       <r>    0.8517    1.0000 </r>
       <r>    1.0786    1.0000 </r>
       <r>    1.4363    1.0000 </r>
       <r>    1.7228    1.0000 </r>
       <r>    2.1723    1.0000 </r>
       <r>    2.6373    1.0000 </r>
       <r>    2.7880    1.0428 </r>
       <r>    4.6417   -0.0485 </r>
       <r>   11.7023    0.0000 </r>
       <r>   12.3851    0.0000 </r>
       <r>   12.7769    0.0000 </r>
       <r>   13.2893    0.0000 </r>
      </set>
      <set comment="kpoint 6">
       <r>  -53.3394    1.0000 </r>
       <r>  -53.3394    1.0000 </r>
       <r>  -53.3366    1.0000 </r>
       <r>  -28.5955    1.0000 </r>
       <r>  -14.3717    1.0000 </r>
       <r>  -13.9217    1.0000 </r>
       <r>  -13.7203    1.0000 </r>
       <r>  -10.6636    1.0000 </r>
       <r>  -10.4634    1.0000 </r>
       <r>  -10.4039    1.0000 </r>
       <r>   -4.6557    1.0000 </r>
       <r>   -4.1863    1.0000 </r>
       <r>   -4.1266    1.0000 </r>
       <r>   -3.6297    1.0000 </r>
       <r>   -3.6208    1.0000 </r>
       <r>   -0.6496    1.0000 </r>
       <r>    0.8863    1.0000 </r>
       <r>    1.5539    1.0000 </r>
       <r>    1.6712    1.0000 </r>
       <r>    1.7360    1.0000 </r>
       <r>    2.0454    1.0000 </r>
       <r>    2.3780    1.0000 </r>
       <r>    3.1598    1.0156 </r>
       <r>    5.4852    0.0000 </r>
       <r>   12.1028    0.0000 </r>
       <r>   12.4039    0.0000 </r>
       <r>   13.3661    0.0000 </r>
       <r>   13.4644    0.0000 </r>
      </set>
      <set comment="kpoint 7">
       <r>  -53.3381    1.0000 </r>
       <r>  -53.3381    1.0000 </r>
       <r>  -53.3379    1.0000 </r>
       <r>  -28.6132    1.0000 </r>
       <r>  -14.6733    1.0000 </r>
       <r>  -13.6752    1.0000 </r>
       <r>  -13.6752    1.0000 </r>
       <r>  -10.7606    1.0000 </r>
       <r>  -10.7606    1.0000 </r>
       <r>  -10.3055    1.0000 </r>
       <r>   -3.7592    1.0000 </r>
       <r>   -3.6422    1.0000 </r>
       <r>   -3.6422    1.0000 </r>
       <r>   -3.5617    1.0000 </r>
       <r>   -3.5617    1.0000 </r>
       <r>   -1.9403    1.0000 </r>
       <r>    1.1779    1.0000 </r>
       <r>    1.5571    1.0000 </r>
       <r>    1.5571    1.0000 </r>
       <r>    1.8740    1.0000 </r>
       <r>    1.8740    1.0000 </r>
       <r>    2.6863    1.0000 </r>
       <r>    4.0309    0.5591 </r>
       <r>    4.0309    0.0271 </r>
       <r>   11.4754    0.0000 </r>
       <r>   11.4772    0.0000 </r>
       <r>   12.1374    0.0000 </r>
       <r>   13.1976    0.0000 </r>
      </set>
      <set comment="kpoint 8">
       <r>  -53.3395    1.0000 </r>
       <r>  -53.3381    1.0000 </r>
       <r>  -53.3380    1.0000 </r>
       <r>  -28.5965    1.0000 </r>
       <r>  -14.4979    1.0000 </r>
       <r>  -13.7453    1.0000 </r>
       <r>  -13.5535    1.0000 </r>
       <r>  -10.9288    1.0000 </r>
       <r>  -10.6258    1.0000 </r>
       <r>  -10.4146    1.0000 </r>
       <r>   -4.4984    1.0000 </r>
       <r>   -3.9199    1.0000 </r>
       <r>   -3.6954    1.0000 </r>
       <r>   -3.6446    1.0000 </r>
       <r>   -3.6020    1.0000 </r>
       <r>   -2.1145    1.0000 </r>
       <r>    1.1006    1.0000 </r>
       <r>    1.5068    1.0000 </r>
       <r>    1.6159    1.0000 </r>
       <r>    1.9374    1.0000 </r>
       <r>    2.4855    1.0000 </r>
       <r>    2.9022    1.0000 </r>
       <r>    3.9170    0.4668 </r>
       <r>    4.8020   -0.0123 </r>
       <r>   12.0462    0.0000 </r>
       <r>   12.1051    0.0000 </r>
       <r>   12.3527    0.0000 </r>
       <r>   12.8878    0.0000 </r>
      </set>
      <set comment="kpoint 9">
       <r>  -53.3393    1.0000 </r>
       <r>  -53.3392    1.0000 </r>
       <r>  -53.3380    1.0000 </r>
       <r>  -28.5810    1.0000 </r>
       <r>  -14.1100    1.0000 </r>
       <r>  -13.7492    1.0000 </r>
       <r>  -13.6023    1.0000 </r>
       <r>  -10.9602    1.0000 </r>
       <r>  -10.7737    1.0000 </r>
       <r>  -10.6151    1.0000 </r>
       <r>   -4.6542    1.0000 </r>
       <r>   -4.2710    1.0000 </r>
       <r>   -4.0098    1.0000 </r>
       <r>   -3.7338    1.0000 </r>
       <r>   -3.7285    1.0000 </r>
       <r>   -2.4585    1.0000 </r>
       <r>    1.2334    1.0000 </r>
       <r>    1.6383    1.0000 </r>
       <r>    1.6677    1.0000 </r>
       <r>    2.5241    1.0000 </r>
       <r>    2.6252    1.0000 </r>
       <r>    3.2071    1.0000 </r>
       <r>    4.1800    0.1168 </r>
       <r>    5.4806    0.0000 </r>
       <r>   11.7774    0.0000 </r>
       <r>   12.1524    0.0000 </r>
       <r>   12.2075    0.0000 </r>
       <r>   13.0027    0.0000 </r>
      </set>
      <set comment="kpoint 10">
       <r>  -53.3394    1.0000 </r>
       <r>  -53.3393    1.0000 </r>
       <r>  -53.3393    1.0000 </r>
       <r>  -28.5663    1.0000 </r>
       <r>  -13.7601    1.0000 </r>
       <r>  -13.5404    1.0000 </r>
       <r>  -13.5404    1.0000 </r>
       <r>  -11.1163    1.0000 </r>
       <r>  -11.1163    1.0000 </r>
       <r>  -10.9491    1.0000 </r>
       <r>   -4.6524    1.0000 </r>
       <r>   -4.6524    1.0000 </r>
       <r>   -3.8907    1.0000 </r>
       <r>   -3.8183    1.0000 </r>
       <r>   -3.8183    1.0000 </r>
       <r>   -3.2945    1.0000 </r>
       <r>    1.5904    1.0000 </r>
       <r>    1.7250    1.0000 </r>
       <r>    1.7250    1.0000 </r>
       <r>    3.1396    1.0000 </r>
       <r>    3.1396    1.0000 </r>
       <r>    3.2849    1.0000 </r>
       <r>    5.4643    0.0000 </r>
       <r>    5.4643    0.0000 </r>
       <r>   11.3067    0.0000 </r>
       <r>   11.3830    0.0000 </r>
       <r>   11.3831    0.0000 </r>
       <r>   13.8539    0.0000 </r>
      </set>
     </set>
     <set comment="spin 2">
      <set comment="kpoint 1">
       <r>  -49.2375    1.0000 </r>
       <r>  -49.2374    1.0000 </r>
       <r>  -49.2374    1.0000 </r>
       <r>  -28.6569    1.0000 </r>
       <r>  -14.8519    1.0000 </r>
       <r>  -13.1724    1.0000 </r>
       <r>  -13.1724    1.0000 </r>
       <r>  -10.7273    1.0000 </r>
       <r>  -10.7273    1.0000 </r>
       <r>  -10.6469    1.0000 </r>
       <r>   -0.8761    1.0000 </r>
       <r>   -0.6486    1.0000 </r>
       <r>   -0.6486    1.0000 </r>
       <r>    1.8372    1.0000 </r>
       <r>    1.8372    1.0000 </r>
       <r>    2.3529    1.0000 </r>
       <r>    2.4278    1.0000 </r>
       <r>    2.7891    1.0000 </r>
       <r>    2.7891    1.0000 </r>
       <r>    4.8180    0.0000 </r>
       <r>    4.8760    0.0000 </r>
       <r>    4.8760    0.0000 </r>
       <r>    5.6311    0.0000 </r>
       <r>    5.6311    0.0000 </r>
       <r>    9.6759    0.0000 </r>
       <r>    9.6759    0.0000 </r>
       <r>   11.4837    0.0000 </r>
       <r>   12.4819    0.0000 </r>
      </set>
      <set comment="kpoint 2">
       <r>  -49.2393    1.0000 </r>
       <r>  -49.2373    1.0000 </r>
       <r>  -49.2373    1.0000 </r>
       <r>  -28.6377    1.0000 </r>
       <r>  -14.8344    1.0000 </r>
       <r>  -13.3640    1.0000 </r>
       <r>  -13.1317    1.0000 </r>
       <r>  -10.7168    1.0000 </r>
       <r>  -10.6533    1.0000 </r>
       <r>  -10.3718    1.0000 </r>
       <r>   -1.3830    1.0000 </r>
       <r>   -0.6954    1.0000 </r>
       <r>   -0.6431    1.0000 </r>
       <r>    1.1230    1.0000 </r>
       <r>    1.1356    1.0000 </r>
       <r>    1.8329    1.0000 </r>
       <r>    2.1871    1.0000 </r>
       <r>    2.4092    1.0000 </r>
       <r>    2.5388    1.0000 </r>
       <r>    4.8843    0.0000 </r>
       <r>    5.4876    0.0000 </r>
       <r>    5.5372    0.0000 </r>
       <r>    5.6867    0.0000 </r>
       <r>    6.6920    0.0000 </r>
       <r>   10.5220    0.0000 </r>
       <r>   10.5875    0.0000 </r>
       <r>   12.2986    0.0000 </r>
       <r>   12.5699    0.0000 </r>
      </set>
      <set comment="kpoint 3">
       <r>  -49.2412    1.0000 </r>
       <r>  -49.2373    1.0000 </r>
       <r>  -49.2372    1.0000 </r>
       <r>  -28.6185    1.0000 </r>
       <r>  -14.8664    1.0000 </r>
       <r>  -13.4397    1.0000 </r>
       <r>  -13.0892    1.0000 </r>
       <r>  -10.7071    1.0000 </r>
       <r>  -10.5968    1.0000 </r>
       <r>  -10.1464    1.0000 </r>
       <r>   -1.8367    1.0000 </r>
       <r>   -0.7056    1.0000 </r>
       <r>   -0.6433    1.0000 </r>
       <r>    0.3551    1.0000 </r>
       <r>    0.6977    1.0000 </r>
       <r>    1.6523    1.0000 </r>
       <r>    1.8747    1.0000 </r>
       <r>    2.0712    1.0000 </r>
       <r>    2.3447    1.0000 </r>
       <r>    4.9190    0.0000 </r>
       <r>    5.6078    0.0000 </r>
       <r>    6.1128    0.0000 </r>
       <r>    6.1355    0.0000 </r>
       <r>    7.3980    0.0000 </r>
       <r>   11.4405    0.0000 </r>
       <r>   11.7449    0.0000 </r>
       <r>   12.4696    0.0000 </r>
       <r>   13.4817    0.0000 </r>
      </set>
      <set comment="kpoint 4">
       <r>  -49.2392    1.0000 </r>
       <r>  -49.2390    1.0000 </r>
       <r>  -49.2373    1.0000 </r>
       <r>  -28.6201    1.0000 </r>
       <r>  -14.6986    1.0000 </r>
       <r>  -13.4983    1.0000 </r>
       <r>  -13.1827    1.0000 </r>
       <r>  -10.6942    1.0000 </r>
       <r>  -10.5445    1.0000 </r>
       <r>  -10.3383    1.0000 </r>
       <r>   -1.7086    1.0000 </r>
       <r>   -0.8967    1.0000 </r>
       <r>   -0.5896    1.0000 </r>
       <r>    0.1429    1.0000 </r>
       <r>    0.9738    1.0000 </r>
       <r>    1.2705    1.0000 </r>
       <r>    2.1473    1.0000 </r>
       <r>    2.2510    1.0000 </r>
       <r>    2.7485    1.0000 </r>
       <r>    5.4820    0.0000 </r>
       <r>    5.6137    0.0000 </r>
       <r>    5.7539    0.0000 </r>
       <r>    6.1259    0.0000 </r>
       <r>    7.3990    0.0000 </r>
       <r>   11.0497    0.0000 </r>
       <r>   11.4258    0.0000 </r>
       <r>   12.4669    0.0000 </r>
       <r>   13.1514    0.0000 </r>
      </set>
      <set comment="kpoint 5">
       <r>  -49.2410    1.0000 </r>
       <r>  -49.2390    1.0000 </r>
       <r>  -49.2371    1.0000 </r>
       <r>  -28.6023    1.0000 </r>
       <r>  -14.5860    1.0000 </r>
       <r>  -13.6085    1.0000 </r>
       <r>  -13.1910    1.0000 </r>
       <r>  -10.7040    1.0000 </r>
       <r>  -10.4710    1.0000 </r>
       <r>  -10.2793    1.0000 </r>
       <r>   -2.0678    1.0000 </r>
       <r>   -1.0134    1.0000 </r>
       <r>   -0.6043    1.0000 </r>
       <r>   -0.4612    1.0000 </r>
       <r>    0.5699    1.0000 </r>
       <r>    1.2274    1.0000 </r>
       <r>    1.8582    1.0000 </r>
       <r>    2.1089    1.0000 </r>
       <r>    2.8575    1.0000 </r>
       <r>    5.5611    0.0000 </r>
       <r>    6.1053    0.0000 </r>
       <r>    6.1395    0.0000 </r>
       <r>    6.2198    0.0000 </r>
       <r>    8.1365    0.0000 </r>
       <r>   11.8280    0.0000 </r>
       <r>   12.4489    0.0000 </r>
       <r>   12.8228    0.0000 </r>
       <r>   13.2640    0.0000 </r>
      </set>
      <set comment="kpoint 6">
       <r>  -49.2409    1.0000 </r>
       <r>  -49.2408    1.0000 </r>
       <r>  -49.2369    1.0000 </r>
       <r>  -28.5861    1.0000 </r>
       <r>  -14.1673    1.0000 </r>
       <r>  -13.7689    1.0000 </r>
       <r>  -13.4436    1.0000 </r>
       <r>  -10.6459    1.0000 </r>
       <r>  -10.4214    1.0000 </r>
       <r>  -10.3725    1.0000 </r>
       <r>   -2.4161    1.0000 </r>
       <r>   -1.2672    1.0000 </r>
       <r>   -1.1973    1.0000 </r>
       <r>   -0.1741    1.0000 </r>
       <r>    0.4204    1.0000 </r>
       <r>    0.6618    1.0000 </r>
       <r>    1.9683    1.0000 </r>
       <r>    2.0791    1.0000 </r>
       <r>    3.3767    1.0000 </r>
       <r>    6.0932    0.0000 </r>
       <r>    6.1299    0.0000 </r>
       <r>    6.3325    0.0000 </r>
       <r>    6.3653    0.0000 </r>
       <r>    8.9694    0.0000 </r>
       <r>   12.1709    0.0000 </r>
       <r>   12.4855    0.0000 </r>
       <r>   13.5228    0.0000 </r>
       <r>   13.5615    0.0000 </r>
      </set>
      <set comment="kpoint 7">
       <r>  -49.2389    1.0000 </r>
       <r>  -49.2389    1.0000 </r>
       <r>  -49.2389    1.0000 </r>
       <r>  -28.6036    1.0000 </r>
       <r>  -14.5231    1.0000 </r>
       <r>  -13.3739    1.0000 </r>
       <r>  -13.3739    1.0000 </r>
       <r>  -10.7087    1.0000 </r>
       <r>  -10.7087    1.0000 </r>
       <r>  -10.2814    1.0000 </r>
       <r>   -1.9553    1.0000 </r>
       <r>   -0.8702    1.0000 </r>
       <r>   -0.8702    1.0000 </r>
       <r>    0.0862    1.0000 </r>
       <r>    0.3822    1.0000 </r>
       <r>    0.3822    1.0000 </r>
       <r>    2.5192    1.0000 </r>
       <r>    2.5192    1.0000 </r>
       <r>    2.8984    1.0000 </r>
       <r>    5.7779    0.0000 </r>
       <r>    5.8602    0.0000 </r>
       <r>    5.8602    0.0000 </r>
       <r>    7.3825    0.0000 </r>
       <r>    7.3825    0.0000 </r>
       <r>   11.6124    0.0000 </r>
       <r>   11.6147    0.0000 </r>
       <r>   12.1846    0.0000 </r>
       <r>   13.3110    0.0000 </r>
      </set>
      <set comment="kpoint 8">
       <r>  -49.2409    1.0000 </r>
       <r>  -49.2389    1.0000 </r>
       <r>  -49.2389    1.0000 </r>
       <r>  -28.5871    1.0000 </r>
       <r>  -14.3259    1.0000 </r>
       <r>  -13.5757    1.0000 </r>
       <r>  -13.2336    1.0000 </r>
       <r>  -10.8914    1.0000 </r>
       <r>  -10.5770    1.0000 </r>
       <r>  -10.3862    1.0000 </r>
       <r>   -2.2753    1.0000 </r>
       <r>   -1.0286    1.0000 </r>
       <r>   -0.8397    1.0000 </r>
       <r>   -0.5380    1.0000 </r>
       <r>    0.0358    1.0000 </r>
       <r>    0.4428    1.0000 </r>
       <r>    2.4867    1.0000 </r>
       <r>    2.6651    1.0000 </r>
       <r>    2.9945    1.0000 </r>
       <r>    5.8978    0.0000 </r>
       <r>    6.2068    0.0000 </r>
       <r>    6.2418    0.0000 </r>
       <r>    7.3451    0.0000 </r>
       <r>    8.3128    0.0000 </r>
       <r>   12.1537    0.0000 </r>
       <r>   12.2130    0.0000 </r>
       <r>   12.4557    0.0000 </r>
       <r>   12.9584    0.0000 </r>
      </set>
      <set comment="kpoint 9">
       <r>  -49.2407    1.0000 </r>
       <r>  -49.2407    1.0000 </r>
       <r>  -49.2387    1.0000 </r>
       <r>  -28.5718    1.0000 </r>
       <r>  -13.9392    1.0000 </r>
       <r>  -13.5884    1.0000 </r>
       <r>  -13.3639    1.0000 </r>
       <r>  -10.9238    1.0000 </r>
       <r>  -10.7272    1.0000 </r>
       <r>  -10.5805    1.0000 </r>
       <r>   -2.6379    1.0000 </r>
       <r>   -1.2570    1.0000 </r>
       <r>   -0.8384    1.0000 </r>
       <r>   -0.7478    1.0000 </r>
       <r>    0.0392    1.0000 </r>
       <r>    0.0421    1.0000 </r>
       <r>    2.7475    1.0000 </r>
       <r>    2.8167    1.0000 </r>
       <r>    3.4187    1.0000 </r>
       <r>    6.2817    0.0000 </r>
       <r>    6.3032    0.0000 </r>
       <r>    6.4292    0.0000 </r>
       <r>    7.7452    0.0000 </r>
       <r>    8.9632    0.0000 </r>
       <r>   11.8481    0.0000 </r>
       <r>   12.2622    0.0000 </r>
       <r>   12.3267    0.0000 </r>
       <r>   13.0836    0.0000 </r>
      </set>
      <set comment="kpoint 10">
       <r>  -49.2407    1.0000 </r>
       <r>  -49.2406    1.0000 </r>
       <r>  -49.2406    1.0000 </r>
       <r>  -28.5573    1.0000 </r>
       <r>  -13.6121    1.0000 </r>
       <r>  -13.3676    1.0000 </r>
       <r>  -13.3676    1.0000 </r>
       <r>  -11.0709    1.0000 </r>
       <r>  -11.0709    1.0000 </r>
       <r>  -10.9060    1.0000 </r>
       <r>   -3.0320    1.0000 </r>
       <r>   -1.2464    1.0000 </r>
       <r>   -1.2464    1.0000 </r>
       <r>   -0.3800    1.0000 </r>
       <r>   -0.1945    1.0000 </r>
       <r>   -0.1945    1.0000 </r>
       <r>    3.3631    1.0000 </r>
       <r>    3.3631    1.0000 </r>
       <r>    3.5042    1.0000 </r>
       <r>    6.5194    0.0000 </r>
       <r>    6.5334    0.0000 </r>
       <r>    6.5334    0.0000 </r>
       <r>    8.9471    0.0000 </r>
       <r>    8.9471    0.0000 </r>
       <r>   11.4012    0.0000 </r>
       <r>   11.4702    0.0000 </r>
       <r>   11.4703    0.0000 </r>
       <r>   13.8935    0.0000 </r>
      </set>
     </set>
    </set>
   </array>
  </eigenvalues>
  <separator name="orbital magnetization" >
   <v name="MAGDIPOLOUT">      0.00000000      0.00000000      0.00000000</v>
  </separator>
 </calculation>
 <structure name="finalpos" >
  <crystal>
   <varray name="basis" >
    <v>       3.75000000       0.00000000       0.00000000 </v>
    <v>       0.00000000       3.75000000       0.00000000 </v>
    <v>       0.00000000       0.00000000       3.75000000 </v>
   </varray>
   <i name="volume">     52.73437500 </i>
   <varray name="rec_basis" >
    <v>       0.26666667       0.00000000       0.00000000 </v>
    <v>       0.00000000       0.26666667       0.00000000 </v>
    <v>       0.00000000       0.00000000       0.26666667 </v>
   </varray>
  </crystal>
  <varray name="positions" >
   <v>       0.50000000       0.50000000       0.50000000 </v>
   <v>       0.00000000       0.00000000       0.00000000 </v>
   <v>       0.50000000       0.00000000       0.00000000 </v>
   <v>       0.00000000       0.50000000       0.00000000 </v>
   <v>       0.00000000       0.00000000       0.50000000 </v>
  </varray>
 </structure>
</modeling>
