  39  39   0   0
  0.1495385E+03  0.1800000E-08  0.1800000E-08  0.1800000E-08  0.1000000E-15
  1.000000000000000E-004
  CAR 
 Pt cube particle                        
      1.77169348    -25.14856587  301     -4.18443439      1.00000000
    -25.149  0.0000E+00  0.0000E+00
    -25.059  0.0000E+00  0.0000E+00
    -24.969  0.0000E+00  0.0000E+00
    -24.879  0.0000E+00  0.0000E+00
    -24.790 -0.1485E-29 -0.1332E-30
    -24.700 -0.1808E-26 -0.1624E-27
    -24.610 -0.1467E-23 -0.1318E-24
    -24.520 -0.7931E-21 -0.7130E-22
    -24.431 -0.2853E-18 -0.2567E-19
    -24.341 -0.6824E-16 -0.6149E-17
    -24.251 -0.1049E-13 -0.9475E-15
    -24.161 -0.1099E-11 -0.9958E-13
    -24.072 -0.7612E-10 -0.6930E-11
    -23.982 -0.3472E-08 -0.3185E-09
    -23.892 -0.1038E-06 -0.9635E-08
    -23.803 -0.2018E-05 -0.1907E-06
    -23.713 -0.2517E-04 -0.2450E-05
    -23.623 -0.1964E-03 -0.2007E-04
    -23.533 -0.9066E-03 -0.1014E-03
    -23.444 -0.2072E-02 -0.2874E-03
    -23.354  0.1192E-03 -0.2767E-03
    -23.264  0.1313E-01  0.9014E-03
    -23.174  0.3360E-01  0.3916E-02
    -23.085  0.4057E-01  0.7556E-02
    -22.995  0.2516E-01  0.9814E-02
    -22.905  0.6020E-02  0.1035E-01
    -22.815 -0.1713E-02  0.1020E-01
    -22.726 -0.1632E-02  0.1005E-01
    -22.636 -0.5086E-03  0.1001E-01
    -22.546 -0.8727E-04  0.1000E-01
    -22.457 -0.9129E-05  0.1000E-01
    -22.367 -0.6051E-06  0.1000E-01
    -22.277 -0.2590E-07  0.1000E-01
    -22.187 -0.7237E-09  0.1000E-01
    -22.098 -0.1329E-10  0.1000E-01
    -22.008 -0.1609E-12  0.1000E-01
    -21.918 -0.1287E-14  0.1000E-01
    -21.828  0.0000E+00  0.1000E-01
    -21.739  0.0000E+00  0.1000E-01
    -21.649  0.0000E+00  0.1000E-01
    -21.559  0.0000E+00  0.1000E-01
    -21.469  0.0000E+00  0.1000E-01
    -21.380  0.0000E+00  0.1000E-01
    -21.290  0.0000E+00  0.1000E-01
    -21.200  0.0000E+00  0.1000E-01
    -21.111  0.0000E+00  0.1000E-01
    -21.021  0.0000E+00  0.1000E-01
    -20.931  0.0000E+00  0.1000E-01
    -20.841  0.0000E+00  0.1000E-01
    -20.752  0.0000E+00  0.1000E-01
    -20.662  0.0000E+00  0.1000E-01
    -20.572  0.0000E+00  0.1000E-01
    -20.482  0.0000E+00  0.1000E-01
    -20.393  0.0000E+00  0.1000E-01
    -20.303  0.0000E+00  0.1000E-01
    -20.213  0.0000E+00  0.1000E-01
    -20.123  0.0000E+00  0.1000E-01
    -20.034  0.0000E+00  0.1000E-01
    -19.944  0.0000E+00  0.1000E-01
    -19.854  0.0000E+00  0.1000E-01
    -19.765  0.0000E+00  0.1000E-01
    -19.675  0.0000E+00  0.1000E-01
    -19.585  0.0000E+00  0.1000E-01
    -19.495  0.0000E+00  0.1000E-01
    -19.406  0.0000E+00  0.1000E-01
    -19.316  0.0000E+00  0.1000E-01
    -19.226  0.0000E+00  0.1000E-01
    -19.136  0.0000E+00  0.1000E-01
    -19.047  0.0000E+00  0.1000E-01
    -18.957  0.0000E+00  0.1000E-01
    -18.867  0.0000E+00  0.1000E-01
    -18.777  0.0000E+00  0.1000E-01
    -18.688  0.0000E+00  0.1000E-01
    -18.598  0.0000E+00  0.1000E-01
    -18.508  0.0000E+00  0.1000E-01
    -18.419  0.0000E+00  0.1000E-01
    -18.329  0.0000E+00  0.1000E-01
    -18.239  0.0000E+00  0.1000E-01
    -18.149  0.0000E+00  0.1000E-01
    -18.060  0.0000E+00  0.1000E-01
    -17.970  0.0000E+00  0.1000E-01
    -17.880  0.0000E+00  0.1000E-01
    -17.790  0.0000E+00  0.1000E-01
    -17.701  0.0000E+00  0.1000E-01
    -17.611  0.0000E+00  0.1000E-01
    -17.521  0.0000E+00  0.1000E-01
    -17.431  0.0000E+00  0.1000E-01
    -17.342  0.0000E+00  0.1000E-01
    -17.252  0.0000E+00  0.1000E-01
    -17.162  0.0000E+00  0.1000E-01
    -17.072  0.0000E+00  0.1000E-01
    -16.983  0.0000E+00  0.1000E-01
    -16.893  0.0000E+00  0.1000E-01
    -16.803  0.0000E+00  0.1000E-01
    -16.714  0.0000E+00  0.1000E-01
    -16.624  0.0000E+00  0.1000E-01
    -16.534  0.0000E+00  0.1000E-01
    -16.444  0.0000E+00  0.1000E-01
    -16.355  0.0000E+00  0.1000E-01
    -16.265  0.0000E+00  0.1000E-01
    -16.175  0.0000E+00  0.1000E-01
    -16.085  0.0000E+00  0.1000E-01
    -15.996  0.0000E+00  0.1000E-01
    -15.906  0.0000E+00  0.1000E-01
    -15.816  0.0000E+00  0.1000E-01
    -15.726  0.0000E+00  0.1000E-01
    -15.637  0.0000E+00  0.1000E-01
    -15.547  0.0000E+00  0.1000E-01
    -15.457  0.0000E+00  0.1000E-01
    -15.368  0.0000E+00  0.1000E-01
    -15.278  0.0000E+00  0.1000E-01
    -15.188  0.0000E+00  0.1000E-01
    -15.098  0.0000E+00  0.1000E-01
    -15.009  0.0000E+00  0.1000E-01
    -14.919  0.0000E+00  0.1000E-01
    -14.829  0.0000E+00  0.1000E-01
    -14.739  0.0000E+00  0.1000E-01
    -14.650  0.0000E+00  0.1000E-01
    -14.560  0.0000E+00  0.1000E-01
    -14.470  0.0000E+00  0.1000E-01
    -14.380  0.0000E+00  0.1000E-01
    -14.291  0.0000E+00  0.1000E-01
    -14.201  0.0000E+00  0.1000E-01
    -14.111  0.0000E+00  0.1000E-01
    -14.022  0.0000E+00  0.1000E-01
    -13.932  0.0000E+00  0.1000E-01
    -13.842  0.0000E+00  0.1000E-01
    -13.752  0.0000E+00  0.1000E-01
    -13.663  0.0000E+00  0.1000E-01
    -13.573  0.0000E+00  0.1000E-01
    -13.483  0.0000E+00  0.1000E-01
    -13.393  0.0000E+00  0.1000E-01
    -13.304  0.0000E+00  0.1000E-01
    -13.214  0.0000E+00  0.1000E-01
    -13.124  0.0000E+00  0.1000E-01
    -13.034 -0.5379E-29  0.1000E-01
    -12.945 -0.6095E-26  0.1000E-01
    -12.855 -0.4604E-23  0.1000E-01
    -12.765 -0.2315E-20  0.1000E-01
    -12.676 -0.7749E-18  0.1000E-01
    -12.586 -0.1662E-15  0.1000E-01
    -12.496 -0.2463E-13  0.1000E-01
    -12.406 -0.2399E-11  0.1000E-01
    -12.317 -0.1543E-09  0.1000E-01
    -12.227 -0.6535E-08  0.1000E-01
    -12.137 -0.1812E-06  0.1000E-01
    -12.047 -0.3260E-05  0.1000E-01
    -11.958 -0.3751E-04  0.9996E-02
    -11.868 -0.2682E-03  0.9972E-02
    -11.778 -0.1115E-02  0.9872E-02
    -11.688 -0.2133E-02  0.9681E-02
    -11.599  0.1469E-02  0.9813E-02
    -11.509  0.1666E-01  0.1131E-01
    -11.419  0.3646E-01  0.1458E-01
    -11.329  0.3918E-01  0.1809E-01
    -11.240  0.2123E-01  0.2000E-01
    -11.150  0.2980E-02  0.2027E-01
    -11.060 -0.4785E-02  0.1984E-01
    -10.971 -0.5829E-02  0.1932E-01
    -10.881  0.4632E-02  0.1973E-01
    -10.791  0.3762E-01  0.2311E-01
    -10.701  0.7897E-01  0.3019E-01
    -10.612  0.9672E-01  0.3887E-01
    -10.522  0.9273E-01  0.4719E-01
    -10.432  0.9214E-01  0.5546E-01
    -10.342  0.8696E-01  0.6327E-01
    -10.253  0.5523E-01  0.6822E-01
    -10.163  0.1719E-01  0.6976E-01
    -10.073  0.1566E-01  0.7117E-01
     -9.983  0.6084E-01  0.7663E-01
     -9.894  0.1196E+00  0.8736E-01
     -9.804  0.1484E+00  0.1007E+00
     -9.714  0.1466E+00  0.1138E+00
     -9.625  0.1616E+00  0.1283E+00
     -9.535  0.2007E+00  0.1463E+00
     -9.445  0.2037E+00  0.1646E+00
     -9.355  0.1632E+00  0.1793E+00
     -9.266  0.1705E+00  0.1946E+00
     -9.176  0.2743E+00  0.2192E+00
     -9.086  0.3805E+00  0.2533E+00
     -8.996  0.3860E+00  0.2880E+00
     -8.907  0.3438E+00  0.3188E+00
     -8.817  0.3592E+00  0.3510E+00
     -8.727  0.3976E+00  0.3867E+00
     -8.637  0.3521E+00  0.4183E+00
     -8.548  0.2346E+00  0.4394E+00
     -8.458  0.1432E+00  0.4522E+00
     -8.368  0.1113E+00  0.4622E+00
     -8.279  0.1119E+00  0.4722E+00
     -8.189  0.1292E+00  0.4838E+00
     -8.099  0.1675E+00  0.4989E+00
     -8.009  0.2405E+00  0.5204E+00
     -7.920  0.3538E+00  0.5522E+00
     -7.830  0.4683E+00  0.5942E+00
     -7.740  0.5163E+00  0.6405E+00
     -7.650  0.4880E+00  0.6843E+00
     -7.561  0.4190E+00  0.7219E+00
     -7.471  0.3194E+00  0.7506E+00
     -7.381  0.2247E+00  0.7708E+00
     -7.291  0.1911E+00  0.7879E+00
     -7.202  0.2044E+00  0.8062E+00
     -7.112  0.2199E+00  0.8260E+00
     -7.022  0.2450E+00  0.8480E+00
     -6.933  0.2905E+00  0.8740E+00
     -6.843  0.3168E+00  0.9025E+00
     -6.753  0.2936E+00  0.9288E+00
     -6.663  0.2470E+00  0.9510E+00
     -6.574  0.2340E+00  0.9720E+00
     -6.484  0.2926E+00  0.9982E+00
     -6.394  0.3838E+00  0.1033E+01
     -6.304  0.4201E+00  0.1070E+01
     -6.215  0.3859E+00  0.1105E+01
     -6.125  0.3643E+00  0.1138E+01
     -6.035  0.3878E+00  0.1172E+01
     -5.945  0.3646E+00  0.1205E+01
     -5.856  0.2422E+00  0.1227E+01
     -5.766  0.1126E+00  0.1237E+01
     -5.676  0.8979E-01  0.1245E+01
     -5.587  0.1895E+00  0.1262E+01
     -5.497  0.3358E+00  0.1292E+01
     -5.407  0.4423E+00  0.1332E+01
     -5.317  0.4668E+00  0.1374E+01
     -5.228  0.4131E+00  0.1411E+01
     -5.138  0.3418E+00  0.1442E+01
     -5.048  0.3534E+00  0.1473E+01
     -4.958  0.4698E+00  0.1515E+01
     -4.869  0.5666E+00  0.1566E+01
     -4.779  0.5409E+00  0.1615E+01
     -4.689  0.4911E+00  0.1659E+01
     -4.599  0.5605E+00  0.1709E+01
     -4.510  0.6776E+00  0.1770E+01
     -4.420  0.6607E+00  0.1829E+01
     -4.330  0.5101E+00  0.1875E+01
     -4.240  0.3862E+00  0.1910E+01
     -4.151  0.3657E+00  0.1942E+01
     -4.061  0.3761E+00  0.1976E+01
     -3.971  0.3413E+00  0.2007E+01
     -3.882  0.2781E+00  0.2032E+01
     -3.792  0.2276E+00  0.2052E+01
     -3.702  0.1857E+00  0.2069E+01
     -3.612  0.1377E+00  0.2081E+01
     -3.523  0.9607E-01  0.2090E+01
     -3.433  0.7256E-01  0.2096E+01
     -3.343  0.6090E-01  0.2102E+01
     -3.253  0.5050E-01  0.2106E+01
     -3.164  0.3278E-01  0.2109E+01
     -3.074  0.1163E-01  0.2110E+01
     -2.984 -0.5381E-03  0.2110E+01
     -2.894 -0.2691E-02  0.2110E+01
     -2.805 -0.2960E-02  0.2110E+01
     -2.715 -0.6766E-02  0.2109E+01
     -2.625 -0.1012E-01  0.2108E+01
     -2.536  0.1049E-01  0.2109E+01
     -2.446  0.8673E-01  0.2117E+01
     -2.356  0.2046E+00  0.2135E+01
     -2.266  0.2859E+00  0.2161E+01
     -2.177  0.2679E+00  0.2185E+01
     -2.087  0.1774E+00  0.2201E+01
     -1.997  0.9286E-01  0.2209E+01
     -1.907  0.5344E-01  0.2214E+01
     -1.818  0.3805E-01  0.2218E+01
     -1.728  0.2445E-01  0.2220E+01
     -1.638  0.2297E-01  0.2222E+01
     -1.548  0.4000E-01  0.2225E+01
     -1.459  0.5672E-01  0.2230E+01
     -1.369  0.5564E-01  0.2235E+01
     -1.279  0.3458E-01  0.2239E+01
     -1.190  0.8848E-02  0.2239E+01
     -1.100  0.1003E-01  0.2240E+01
     -1.010  0.5574E-01  0.2245E+01
     -0.920  0.1083E+00  0.2255E+01
     -0.831  0.1057E+00  0.2264E+01
     -0.741  0.6022E-01  0.2270E+01
     -0.651  0.4363E-01  0.2274E+01
     -0.561  0.6769E-01  0.2280E+01
     -0.472  0.8934E-01  0.2288E+01
     -0.382  0.1017E+00  0.2297E+01
     -0.292  0.1113E+00  0.2307E+01
     -0.202  0.9417E-01  0.2315E+01
     -0.113  0.4900E-01  0.2320E+01
     -0.023  0.1039E-01  0.2321E+01
      0.067 -0.3657E-02  0.2320E+01
      0.156 -0.3417E-02  0.2320E+01
      0.246 -0.1164E-02  0.2320E+01
      0.336 -0.2262E-03  0.2320E+01
      0.426 -0.2735E-04  0.2320E+01
      0.515 -0.2121E-05  0.2320E+01
      0.605 -0.1070E-06  0.2320E+01
      0.695 -0.3537E-08  0.2320E+01
      0.785 -0.7699E-10  0.2320E+01
      0.874 -0.1107E-11  0.2320E+01
      0.964 -0.1054E-13  0.2320E+01
      1.054 -0.7423E-16  0.2320E+01
      1.144  0.0000E+00  0.2320E+01
      1.233  0.0000E+00  0.2320E+01
      1.323  0.0000E+00  0.2320E+01
      1.413  0.0000E+00  0.2320E+01
      1.502  0.0000E+00  0.2320E+01
      1.592  0.0000E+00  0.2320E+01
      1.682  0.0000E+00  0.2320E+01
      1.772  0.0000E+00  0.2320E+01
