   39   39  200    1
  0.1495385E+03  0.1800000E-08  0.1800000E-08  0.1800000E-08  0.1000000E-15
  1.000000000000000E-004
  CAR 
 Pt cube particle                        
    386      1    232
 
  0.0000000E+00  0.0000000E+00  0.0000000E+00  0.1000000E+01
    1      -23.148566   1.000000
    2      -11.409269   1.000000
    3      -10.725450   1.000000
    4      -10.688147   1.000000
    5      -10.548009   1.000000
    6      -10.405390   1.000000
    7      -10.351559   1.000000
    8       -9.982707   1.000000
    9       -9.901282   1.000000
   10       -9.825245   1.000000
   11       -9.823967   1.000000
   12       -9.720400   1.000000
   13       -9.605057   1.000000
   14       -9.556854   1.000000
   15       -9.548509   1.000000
   16       -9.497514   1.000000
   17       -9.479091   1.000000
   18       -9.428424   1.000000
   19       -9.315371   1.000000
   20       -9.245438   1.000000
   21       -9.167520   1.000000
   22       -9.148385   1.000000
   23       -9.142285   1.000000
   24       -9.128817   1.000000
   25       -9.119304   1.000000
   26       -9.094407   1.000000
   27       -9.092706   1.000000
   28       -9.037580   1.000000
   29       -9.026520   1.000000
   30       -9.016992   1.000000
   31       -8.944570   1.000000
   32       -8.896183   1.000000
   33       -8.893234   1.000000
   34       -8.854613   1.000000
   35       -8.791341   1.000000
   36       -8.764295   1.000000
   37       -8.759960   1.000000
   38       -8.744961   1.000000
   39       -8.741724   1.000000
   40       -8.740824   1.000000
   41       -8.711237   1.000000
   42       -8.665280   1.000000
   43       -8.646878   1.000000
   44       -8.578835   1.000000
   45       -8.492626   1.000000
   46       -8.432106   1.000000
   47       -8.346524   1.000000
   48       -8.231854   1.000000
   49       -8.215492   1.000000
   50       -8.091750   1.000000
   51       -8.082461   1.000000
   52       -8.033068   1.000000
   53       -7.986232   1.000000
   54       -7.964424   1.000000
   55       -7.927781   1.000000
   56       -7.888483   1.000000
   57       -7.857150   1.000000
   58       -7.847764   1.000000
   59       -7.847097   1.000000
   60       -7.826595   1.000000
   61       -7.825587   1.000000
   62       -7.819988   1.000000
   63       -7.767043   1.000000
   64       -7.755693   1.000000
   65       -7.737347   1.000000
   66       -7.729818   1.000000
   67       -7.705563   1.000000
   68       -7.677938   1.000000
   69       -7.619128   1.000000
   70       -7.602691   1.000000
   71       -7.599870   1.000000
   72       -7.575323   1.000000
   73       -7.563750   1.000000
   74       -7.547769   1.000000
   75       -7.515615   1.000000
   76       -7.489325   1.000000
   77       -7.400760   1.000000
   78       -7.320808   1.000000
   79       -7.310587   1.000000
   80       -7.242393   1.000000
   81       -7.211889   1.000000
   82       -7.160919   1.000000
   83       -7.143780   1.000000
   84       -7.072116   1.000000
   85       -7.012031   1.000000
   86       -6.968027   1.000000
   87       -6.957815   1.000000
   88       -6.929969   1.000000
   89       -6.899791   1.000000
   90       -6.870550   1.000000
   91       -6.854017   1.000000
   92       -6.816116   1.000000
   93       -6.748707   1.000000
   94       -6.731541   1.000000
   95       -6.701211   1.000000
   96       -6.690524   1.000000
   97       -6.574371   1.000000
   98       -6.561346   1.000000
   99       -6.518739   1.000000
  100       -6.463284   1.000000
  101       -6.447198   1.000000
  102       -6.439336   1.000000
  103       -6.390260   1.000000
  104       -6.383186   1.000000
  105       -6.378523   1.000000
  106       -6.348675   1.000000
  107       -6.332204   1.000000
  108       -6.299817   1.000000
  109       -6.274019   1.000000
  110       -6.265877   1.000000
  111       -6.236598   1.000000
  112       -6.195080   1.000000
  113       -6.129716   1.000000
  114       -6.124682   1.000000
  115       -6.074863   1.000000
  116       -6.043230   1.000000
  117       -6.039011   1.000000
  118       -6.020699   1.000000
  119       -6.012348   1.000000
  120       -5.997593   1.000000
  121       -5.967615   1.000000
  122       -5.950991   1.000000
  123       -5.900536   1.000000
  124       -5.808136   1.000000
  125       -5.626110   1.000000
  126       -5.604494   1.000000
  127       -5.546451   1.000000
  128       -5.541706   1.000000
  129       -5.511180   1.000000
  130       -5.502947   1.000000
  131       -5.451937   1.000000
  132       -5.447236   1.000000
  133       -5.426262   1.000000
  134       -5.396220   1.000000
  135       -5.370557   1.000000
  136       -5.360109   1.000000
  137       -5.333869   1.000000
  138       -5.323361   1.000000
  139       -5.313534   1.000000
  140       -5.277677   1.000000
  141       -5.246395   1.000000
  142       -5.236125   1.000000
  143       -5.203640   1.000000
  144       -5.161124   1.000000
  145       -5.157806   1.000000
  146       -5.080925   1.000000
  147       -5.066577   1.000000
  148       -5.008915   1.000000
  149       -4.997535   1.000000
  150       -4.968355   1.000000
  151       -4.963298   1.000000
  152       -4.944624   1.000001
  153       -4.934548   1.000001
  154       -4.917855   1.000001
  155       -4.899772   1.000003
  156       -4.896724   1.000003
  157       -4.888616   1.000004
  158       -4.866753   1.000008
  159       -4.840125   1.000018
  160       -4.831513   1.000024
  161       -4.829593   1.000025
  162       -4.806167   1.000050
  163       -4.775646   1.000119
  164       -4.770645   1.000137
  165       -4.713626   1.000589
  166       -4.694101   1.000931
  167       -4.640963   1.002892
  168       -4.628717   1.003667
  169       -4.623416   1.004052
  170       -4.602887   1.005867
  171       -4.581834   1.008336
  172       -4.574975   1.009287
  173       -4.557990   1.011965
  174       -4.543043   1.014701
  175       -4.536707   1.015960
  176       -4.526661   1.018065
  177       -4.525001   1.018424
  178       -4.499427   1.024225
  179       -4.496474   1.024908
  180       -4.485418   1.027431
  181       -4.472268   1.030257
  182       -4.464577   1.031746
  183       -4.446155   1.034493
  184       -4.440152   1.035043
  185       -4.411403   1.034055
  186       -4.392096   1.028660
  187       -4.357580   1.005004
  188       -4.330112   0.969395
  189       -4.320867   0.953491
  190       -4.264375   0.810157
  191       -4.248823   0.757430
  192       -4.214366   0.625094
  193       -4.189455   0.521238
  194       -4.131117   0.283041
  195       -4.119540   0.240777
  196       -4.109520   0.206319
  197       -4.107690   0.200254
  198       -4.072865   0.099800
  199       -4.062110   0.074839
  200       -4.028962   0.015972
  201       -3.961797  -0.033237
  202       -3.947935  -0.035167
  203       -3.917220  -0.033824
  204       -3.862475  -0.022613
  205       -3.823342  -0.014222
  206       -3.764891  -0.005757
  207       -3.717762  -0.002360
  208       -3.696915  -0.001523
  209       -3.563508  -0.000051
  210       -3.452868  -0.000001
  211       -3.272661   0.000000
  212       -2.420107   0.000000
  213       -2.374181   0.000000
  214       -2.341954   0.000000
  215       -2.329443   0.000000
  216       -2.284188   0.000000
  217       -2.265684   0.000000
  218       -2.211278   0.000000
  219       -2.195791   0.000000
  220       -2.174777   0.000000
  221       -2.042587   0.000000
  222       -1.870356   0.000000
  223       -1.551949   0.000000
  224       -1.378983   0.000000
  225       -0.949552   0.000000
  226       -0.929694   0.000000
  227       -0.887630   0.000000
  228       -0.570325   0.000000
  229       -0.558483   0.000000
  230       -0.350987   0.000000
  231       -0.328392   0.000000
  232       -0.228307   0.000000
