 running on    8 total cores
 distrk:  each k-point on    8 cores,    1 groups
 distr:  one band on    4 cores,    2 groups
 using from now: INCAR     
 vasp.5.4.1 24Jun15 (build Jan 06 2016 13:19:48) gamma-only                     
  
 POSCAR found :  3 types and      39 ions
 scaLAPACK will be used
 LDA part: xc-table for Ceperly-Alder, standard interpolation
 POSCAR found :  3 types and      39 ions
 POSCAR, INCAR and KPOINTS ok, starting setup
 WARNING: small aliasing (wrap around) errors must be expected
 FFT: planning ...
 WAVECAR not read
 entering main loop
       N       E                     dE             d eps       ncg     rms          rms(c)
RMM:   1     0.485120851343E+04    0.48512E+04   -0.71145E+04   232   0.680E+02
RMM:   2     0.274124382374E+04   -0.21100E+04   -0.23368E+04   232   0.172E+02
RMM:   3     0.174285833420E+04   -0.99839E+03   -0.12794E+04   232   0.126E+02
RMM:   4     0.968689361108E+03   -0.77417E+03   -0.82063E+03   232   0.124E+02
RMM:   5     0.510143020388E+03   -0.45855E+03   -0.42334E+03   232   0.887E+01
RMM:   6     0.205089694184E+03   -0.30505E+03   -0.25883E+03   232   0.815E+01
RMM:   7     0.478100456684E+02   -0.15728E+03   -0.13146E+03   232   0.578E+01
RMM:   8    -0.589073426454E+02   -0.10672E+03   -0.84143E+02   232   0.628E+01
RMM:   9    -0.151100633626E+03   -0.92193E+02   -0.82160E+02   646   0.400E+01
RMM:  10    -0.184556115718E+03   -0.33455E+02   -0.30291E+02   724   0.133E+01
RMM:  11    -0.195217768275E+03   -0.10662E+02   -0.94354E+01   734   0.675E+00
RMM:  12    -0.199365746591E+03   -0.41480E+01   -0.31031E+01   739   0.329E+00    0.234E+01
RMM:  13    -0.198304164690E+03    0.10616E+01   -0.11705E+02   515   0.216E+01    0.278E+01
RMM:  14    -0.190838701703E+03    0.74655E+01   -0.50315E+01   517   0.146E+01    0.124E+01
RMM:  15    -0.189435593334E+03    0.14031E+01   -0.17991E+01   562   0.668E+00    0.863E+00
RMM:  16    -0.189286519300E+03    0.14907E+00   -0.81984E+00   557   0.382E+00    0.727E+00
RMM:  17    -0.189130485796E+03    0.15603E+00   -0.37897E+00   563   0.239E+00    0.516E+00
RMM:  18    -0.189012249532E+03    0.11824E+00   -0.14937E+00   545   0.155E+00    0.346E+00
RMM:  19    -0.189040157861E+03   -0.27908E-01   -0.58142E-01   545   0.116E+00    0.325E+00
RMM:  20    -0.189014259443E+03    0.25898E-01   -0.29690E-01   513   0.110E+00    0.239E+00
RMM:  21    -0.189012573675E+03    0.16858E-02   -0.22356E-01   499   0.104E+00    0.195E+00
RMM:  22    -0.188987730831E+03    0.24843E-01   -0.98561E-02   497   0.699E-01    0.167E+00
RMM:  23    -0.188957919499E+03    0.29811E-01   -0.32456E-02   498   0.407E-01    0.908E-01
RMM:  24    -0.188945683304E+03    0.12236E-01   -0.17509E-02   484   0.312E-01    0.551E-01
RMM:  25    -0.188936236757E+03    0.94465E-02   -0.84147E-03   493   0.202E-01    0.350E-01
RMM:  26    -0.188932014206E+03    0.42226E-02   -0.34225E-03   500   0.123E-01    0.167E-01
RMM:  27    -0.188929710281E+03    0.23039E-02   -0.20051E-03   521   0.855E-02    0.140E-01
RMM:  28    -0.188929927218E+03   -0.21694E-03   -0.78367E-04   407   0.601E-02    0.100E-01
RMM:  29    -0.188931073547E+03   -0.11463E-02   -0.39640E-04   331   0.497E-02    0.696E-02
RMM:  30    -0.188932787374E+03   -0.17138E-02   -0.24900E-04   293   0.410E-02    0.501E-02
RMM:  31    -0.188935479640E+03   -0.26923E-02   -0.37544E-04   326   0.403E-02    0.538E-02
RMM:  32    -0.188939124311E+03   -0.36447E-02   -0.79017E-04   347   0.441E-02    0.347E-02
RMM:  33    -0.188941051257E+03   -0.19269E-02   -0.52146E-04   346   0.312E-02    0.239E-02
RMM:  34    -0.188943266925E+03   -0.22157E-02   -0.69782E-04   352   0.329E-02    0.257E-02
RMM:  35    -0.188943991935E+03   -0.72501E-03   -0.26472E-04   308   0.237E-02    0.166E-02
RMM:  36    -0.188944532906E+03   -0.54097E-03   -0.15714E-04   282   0.189E-02    0.108E-02
RMM:  37    -0.188944802860E+03   -0.26995E-03   -0.79425E-05   244   0.168E-02    0.827E-03
RMM:  38    -0.188945025508E+03   -0.22265E-03   -0.46723E-05   226   0.137E-02    0.546E-03
RMM:  39    -0.188945165565E+03   -0.14006E-03   -0.23150E-05   175   0.107E-02    0.348E-03
RMM:  40    -0.188945299598E+03   -0.13403E-03   -0.14622E-05   177   0.854E-03    0.282E-03
RMM:  41    -0.188945391180E+03   -0.91582E-04   -0.10024E-05   162   0.700E-03
   1 F= -.18894539E+03 E0= -.18896852E+03  d E =-.188945E+03
 curvature:   0.00 expect dE= 0.000E+00 dE for cont linesearch  0.000E+00
 trial: gam= 0.00000 g(F)=  0.103E-04 g(S)=  0.000E+00 ort = 0.000E+00 (trialstep = 0.100E+01)
 search vector abs. value=  0.103E-04
 bond charge predicted
       N       E                     dE             d eps       ncg     rms          rms(c)
RMM:   1    -0.188945454386E+03   -0.15479E-03   -0.58470E-04   417   0.436E-02    0.396E-03
RMM:   2    -0.188945474499E+03   -0.20113E-04   -0.17083E-05   244   0.121E-02
   2 F= -.18894547E+03 E0= -.18896861E+03  d E =-.833190E-04
 trial-energy change:   -0.000083  1 .order   -0.000007   -0.000010   -0.000004
 step:   1.6048(harm=  1.6048)  dis= 0.00009  next Energy=  -188.945399 (dE=-0.830E-05)
 reached required accuracy - stopping structural energy minimisation
 running on    8 total cores
 distrk:  each k-point on    8 cores,    1 groups
 distr:  one band on    4 cores,    2 groups
 using from now: INCAR     
 vasp.5.4.1 24Jun15 (build Jan 06 2016 13:19:48) gamma-only                     
  
 POSCAR found :  3 types and      39 ions
 scaLAPACK will be used
 LDA part: xc-table for Ceperly-Alder, standard interpolation
 POSCAR found :  3 types and      39 ions
 POSCAR, INCAR and KPOINTS ok, starting setup
 WARNING: small aliasing (wrap around) errors must be expected
 FFT: planning ...
 WAVECAR not read
 WARNING: random wavefunctions but no delay for mixing, default for NELMDL
 entering main loop
       N       E                     dE             d eps       ncg     rms          rms(c)
RMM:   1     0.485120851343E+04    0.48512E+04   -0.71145E+04   232   0.680E+02
RMM:   2     0.274124382374E+04   -0.21100E+04   -0.23368E+04   232   0.172E+02
RMM:   3     0.174285833420E+04   -0.99839E+03   -0.12794E+04   232   0.126E+02
RMM:   4     0.968689361108E+03   -0.77417E+03   -0.82063E+03   232   0.124E+02
RMM:   5     0.510143020388E+03   -0.45855E+03   -0.42334E+03   232   0.887E+01
RMM:   6     0.205089694184E+03   -0.30505E+03   -0.25883E+03   232   0.815E+01
RMM:   7     0.478100456684E+02   -0.15728E+03   -0.13146E+03   232   0.578E+01
RMM:   8    -0.589073426454E+02   -0.10672E+03   -0.84143E+02   232   0.628E+01
RMM:   9    -0.151100633626E+03   -0.92193E+02   -0.82160E+02   646   0.400E+01
RMM:  10    -0.184556115718E+03   -0.33455E+02   -0.30291E+02   724   0.133E+01
RMM:  11    -0.195217768275E+03   -0.10662E+02   -0.94354E+01   734   0.675E+00
RMM:  12    -0.199365746591E+03   -0.41480E+01   -0.31031E+01   739   0.329E+00    0.234E+01
RMM:  13    -0.198304164689E+03    0.10616E+01   -0.11705E+02   515   0.216E+01    0.278E+01
RMM:  14    -0.190838701702E+03    0.74655E+01   -0.50315E+01   517   0.146E+01    0.124E+01
RMM:  15    -0.189435593334E+03    0.14031E+01   -0.17991E+01   562   0.668E+00    0.863E+00
RMM:  16    -0.189286519299E+03    0.14907E+00   -0.81984E+00   557   0.382E+00    0.727E+00
RMM:  17    -0.189130485795E+03    0.15603E+00   -0.37897E+00   563   0.239E+00    0.516E+00
RMM:  18    -0.189012249532E+03    0.11824E+00   -0.14937E+00   545   0.155E+00    0.346E+00
RMM:  19    -0.189040157861E+03   -0.27908E-01   -0.58142E-01   545   0.116E+00    0.325E+00
RMM:  20    -0.189014259443E+03    0.25898E-01   -0.29690E-01   513   0.110E+00    0.239E+00
RMM:  21    -0.189012573675E+03    0.16858E-02   -0.22356E-01   499   0.104E+00    0.195E+00
RMM:  22    -0.188987730831E+03    0.24843E-01   -0.98561E-02   497   0.699E-01    0.167E+00
RMM:  23    -0.188957919500E+03    0.29811E-01   -0.32456E-02   498   0.407E-01    0.908E-01
RMM:  24    -0.188945683303E+03    0.12236E-01   -0.17509E-02   484   0.312E-01    0.551E-01
RMM:  25    -0.188936236757E+03    0.94465E-02   -0.84147E-03   493   0.202E-01    0.350E-01
RMM:  26    -0.188932014206E+03    0.42226E-02   -0.34225E-03   500   0.123E-01    0.167E-01
RMM:  27    -0.188929710280E+03    0.23039E-02   -0.20051E-03   521   0.855E-02    0.140E-01
RMM:  28    -0.188929927218E+03   -0.21694E-03   -0.78367E-04   407   0.601E-02    0.100E-01
RMM:  29    -0.188931073547E+03   -0.11463E-02   -0.39640E-04   331   0.497E-02    0.696E-02
RMM:  30    -0.188932787374E+03   -0.17138E-02   -0.24900E-04   293   0.410E-02    0.501E-02
RMM:  31    -0.188935479640E+03   -0.26923E-02   -0.37544E-04   326   0.403E-02    0.538E-02
RMM:  32    -0.188939124311E+03   -0.36447E-02   -0.79017E-04   347   0.441E-02    0.347E-02
RMM:  33    -0.188941051258E+03   -0.19269E-02   -0.52146E-04   346   0.312E-02    0.239E-02
RMM:  34    -0.188943266925E+03   -0.22157E-02   -0.69782E-04   352   0.329E-02    0.257E-02
RMM:  35    -0.188943991935E+03   -0.72501E-03   -0.26472E-04   308   0.237E-02    0.166E-02
RMM:  36    -0.188944532906E+03   -0.54097E-03   -0.15714E-04   282   0.189E-02    0.108E-02
RMM:  37    -0.188944802861E+03   -0.26995E-03   -0.79425E-05   244   0.168E-02    0.827E-03
RMM:  38    -0.188945025508E+03   -0.22265E-03   -0.46723E-05   226   0.137E-02    0.546E-03
RMM:  39    -0.188945165565E+03   -0.14006E-03   -0.23151E-05   175   0.107E-02    0.348E-03
RMM:  40    -0.188945299598E+03   -0.13403E-03   -0.14622E-05   177   0.854E-03    0.282E-03
RMM:  41    -0.188945391181E+03   -0.91583E-04   -0.10024E-05   162   0.700E-03
   1 F= -.18894539E+03 E0= -.18896852E+03  d E =-.188945E+03
 curvature:   0.00 expect dE= 0.000E+00 dE for cont linesearch  0.000E+00
 trial: gam= 0.00000 g(F)=  0.103E-04 g(S)=  0.000E+00 ort = 0.000E+00 (trialstep = 0.100E+01)
 search vector abs. value=  0.103E-04
 bond charge predicted
       N       E                     dE             d eps       ncg     rms          rms(c)
RMM:   1    -0.188945454385E+03   -0.15479E-03   -0.58470E-04   417   0.436E-02    0.396E-03
RMM:   2    -0.188945474499E+03   -0.20114E-04   -0.17083E-05   244   0.121E-02
   2 F= -.18894547E+03 E0= -.18896861E+03  d E =-.833180E-04
 trial-energy change:   -0.000083  1 .order   -0.000007   -0.000010   -0.000004
 step:   1.6048(harm=  1.6048)  dis= 0.00009  next Energy=  -188.945399 (dE=-0.830E-05)
 reached required accuracy - stopping structural energy minimisation
