 vasp.5.4.1 24Jun15 (build Jan 06 2016 13:19:48) gamma-only                     
  
 executed on           IFC91_ompi date 2016.02.23  15:19:07
 running on    8 total cores
 distrk:  each k-point on    8 cores,    1 groups
 distr:  one band on NCORES_PER_BAND=   4 cores,    2 groups


--------------------------------------------------------------------------------------------------------


 INCAR:
 POTCAR:    PAW Pt                                
 POTCAR:    PAW Pd                                
 POTCAR:    PAW O_s                               
 POTCAR:    PAW Pt                                
   VRHFIN =Pt: s1d9                                                             
   LEXCH  = 91                                                                  
   EATOM  =   730.0441 eV,   53.6567 Ry                                         
                                                                                
   TITEL  = PAW Pt                                                              
   LULTRA =        F    use ultrasoft PP ?                                      
   IUNSCR =        1    unscreen: 0-lin 1-nonlin 2-no                           
   RPACOR =    2.330    partial core radius                                     
   POMASS =  195.080; ZVAL   =   10.000    mass and valenz                      
   RCORE  =    2.500    outmost cutoff radius                                   
   RWIGS  =    2.750; RWIGS  =    1.455    wigner-seitz radius (au A)           
   ENMAX  =  230.277; ENMIN  =  172.708 eV                                      
   RCLOC  =    1.896    cutoff for local pot                                    
   LCOR   =        T    correct aug charges                                     
   LPAW   =        T    paw PP                                                  
   EAUG   =  358.966                                                            
   DEXC   =    -.016                                                            
   RMAX   =    3.038    core radius for proj-oper                               
   RAUG   =    1.300    factor for augmentation sphere                          
   RDEP   =    2.590    core radius for depl-charge                             
   QCUT   =   -4.114; QGAM   =    8.228    optimization parameters              
                                                                                
   Description                                                                  
     l     E      TYP  RCUT    TYP  RCUT                                        
     2   .000     23  2.500                                                     
     2   .000     23  2.500                                                     
     0   .000     23  2.500                                                     
     0   .000     23  2.500                                                     
     1  -.200     23  2.500                                                     
     1  1.500     23  2.500                                                     
     3   .000      7   .000                                                     
  local pseudopotential read in
  partial core-charges read in
  atomic valenz-charges read in
  non local Contribution for L=           2  read in
    real space projection operators read in
  non local Contribution for L=           2  read in
    real space projection operators read in
  non local Contribution for L=           0  read in
    real space projection operators read in
  non local Contribution for L=           0  read in
    real space projection operators read in
  non local Contribution for L=           1  read in
    real space projection operators read in
  non local Contribution for L=           1  read in
    real space projection operators read in
    PAW grid and wavefunctions read in
 
   number of l-projection  operators is LMAX  =           6
   number of lm-projection operators is LMMAX =          18
 
 POTCAR:    PAW Pd                                
   VRHFIN =Pd : s1 d9                                                           
   LEXCH  = 91                                                                  
   EATOM  =   810.7745 eV,   59.5902 Ry                                         
                                                                                
   TITEL  = PAW Pd                                                              
   LULTRA =        F    use ultrasoft PP ?                                      
   IUNSCR =        1    unscreen: 0-lin 1-nonlin 2-no                           
   RPACOR =    2.000    partial core radius                                     
   POMASS =  106.420; ZVAL   =   10.000    mass and valenz                      
   RCORE  =    2.400    outmost cutoff radius                                   
   RWIGS  =    2.710; RWIGS  =    1.434    wigner-seitz radius (au A)           
   ENMAX  =  250.918; ENMIN  =  188.188 eV                                      
   RCLOC  =    1.862    cutoff for local pot                                    
   LCOR   =        T    correct aug charges                                     
   LPAW   =        T    paw PP                                                  
   EAUG   =  416.230                                                            
   DEXC   =    -.044                                                            
   RMAX   =    2.911    core radius for proj-oper                               
   RAUG   =    1.300    factor for augmentation sphere                          
   RDEP   =    2.405    core radius for depl-charge                             
   QCUT   =   -4.294; QGAM   =    8.589    optimization parameters              
                                                                                
   Description                                                                  
     l     E      TYP  RCUT    TYP  RCUT                                        
     2   .000     23  2.400                                                     
     2   .000     23  2.400                                                     
     0   .000     23  2.400                                                     
     0   .000     23  2.400                                                     
     1  -.200     23  2.400                                                     
     1   .000     23  2.400                                                     
     3   .000      7   .000                                                     
  local pseudopotential read in
  partial core-charges read in
  atomic valenz-charges read in
  non local Contribution for L=           2  read in
    real space projection operators read in
  non local Contribution for L=           2  read in
    real space projection operators read in
  non local Contribution for L=           0  read in
    real space projection operators read in
  non local Contribution for L=           0  read in
    real space projection operators read in
  non local Contribution for L=           1  read in
    real space projection operators read in
  non local Contribution for L=           1  read in
    real space projection operators read in
    PAW grid and wavefunctions read in
 
   number of l-projection  operators is LMAX  =           6
   number of lm-projection operators is LMMAX =          18
 
 POTCAR:    PAW O_s                               
   VRHFIN =O: s2p4                                                              
   LEXCH  = 91                                                                  
   EATOM  =   433.0277 eV,   31.8266 Ry                                         
                                                                                
   TITEL  = PAW O_s                                                             
   LULTRA =        F    use ultrasoft PP ?                                      
   IUNSCR =        0    unscreen: 0-lin 1-nonlin 2-no                           
   RPACOR =     .000    partial core radius                                     
   POMASS =   16.000; ZVAL   =    6.000    mass and valenz                      
   RCORE  =    1.900    outmost cutoff radius                                   
   RWIGS  =    1.700; RWIGS  =     .900    wigner-seitz radius (au A)           
   ENMAX  =  250.000; ENMIN  =  202.667 eV                                      
   RCLOC  =    1.014    cutoff for local pot                                    
   LCOR   =        T    correct aug charges                                     
   LPAW   =        T    paw PP                                                  
   EAUG   =  412.352                                                            
   DEXC   =     .000                                                            
   RMAX   =    2.805    core radius for proj-oper                               
   RDEP   =    2.002    core radius for depl-charge                             
   QCUT   =   -4.457; QGAM   =    8.913    optimization parameters              
                                                                                
   Description                                                                  
     l     E      TYP  RCUT    TYP  RCUT                                        
     0   .000     23  1.500                                                     
     0   .000     23  1.500                                                     
     1   .000     23  1.900                                                     
     1   .000     23  1.900                                                     
     2   .000      7   .000                                                     
  local pseudopotential read in
  atomic valenz-charges read in
  non local Contribution for L=           0  read in
    real space projection operators read in
  non local Contribution for L=           0  read in
    real space projection operators read in
  non local Contribution for L=           1  read in
    real space projection operators read in
  non local Contribution for L=           1  read in
    real space projection operators read in
    PAW grid and wavefunctions read in
 
   number of l-projection  operators is LMAX  =           4
   number of lm-projection operators is LMMAX =           8
 
 Optimization of the real space projectors (new method)

 maximal supplied QI-value         = 15.12
 optimisation between [QCUT,QGAM] = [  8.47, 16.93] = [ 20.07, 80.28] Ry 
 Optimized for a Real-space Cutoff    1.77 Angstroem

   l    n(q)    QCUT    max X(q) W(low)/X(q) W(high)/X(q)  e(spline) 
   2      8     8.466     3.641    0.49E-04    0.39E-05    0.40E-07
   2      8     8.466    46.630    0.33E-03    0.12E-03    0.54E-06
   0      9     8.466    13.886    0.23E-04    0.26E-05    0.52E-08
   0      9     8.466    57.975    0.13E-03    0.11E-03    0.74E-07
   1      8     8.466     7.456    0.74E-05    0.18E-04    0.29E-07
   1      8     8.466    10.270    0.67E-04    0.35E-04    0.82E-07
 Optimization of the real space projectors (new method)

 maximal supplied QI-value         = 15.68
 optimisation between [QCUT,QGAM] = [  8.47, 16.94] = [ 20.09, 80.35] Ry 
 Optimized for a Real-space Cutoff    1.57 Angstroem

   l    n(q)    QCUT    max X(q) W(low)/X(q) W(high)/X(q)  e(spline) 
   2      7     8.470     3.678    0.37E-04    0.99E-04    0.37E-07
   2      7     8.470    27.581    0.48E-03    0.11E-02    0.28E-06
   0      8     8.470    18.529    0.16E-04    0.51E-05    0.58E-08
   0      8     8.470    72.518    0.26E-03    0.26E-03    0.54E-07
   1      7     8.470     7.283    0.30E-04    0.76E-04    0.24E-07
   1      7     8.470     9.762    0.13E-03    0.27E-03    0.59E-07
 Optimization of the real space projectors (new method)

 maximal supplied QI-value         = 19.84
 optimisation between [QCUT,QGAM] = [  8.33, 16.87] = [ 19.45, 79.66] Ry 
 Optimized for a Real-space Cutoff    1.67 Angstroem

   l    n(q)    QCUT    max X(q) W(low)/X(q) W(high)/X(q)  e(spline) 
   0      8     8.334     3.485    0.84E-05    0.10E-04    0.85E-07
   0      8     8.334    30.133    0.11E-03    0.28E-03    0.23E-06
   1      8     8.334     3.755    0.67E-04    0.37E-04    0.14E-06
   1      8     8.334    24.805    0.39E-03    0.35E-03    0.29E-06
  PAW Pt                                :
 energy of atom  1       EATOM= -730.0441
 kinetic energy error for atom=    0.0517 (will be added to EATOM!!)
  PAW Pd                                :
 energy of atom  2       EATOM= -810.7745
 kinetic energy error for atom=    0.0521 (will be added to EATOM!!)
  PAW O_s                               :
 energy of atom  3       EATOM= -433.0277
 kinetic energy error for atom=    0.0747 (will be added to EATOM!!)
 
 
 POSCAR: Pt Pd O                                 
  positions in direct lattice
  velocities in cartesian coordinates
 exchange correlation table for  LEXCH =        7
   RHO(1)=    0.500       N(1)  =     2000
   RHO(2)=  100.500       N(2)  =     4000

 VTST: version 3.1, (03/28/14)

 CHAIN: initializing optimizer
 
 OPT: Using VASP Conjugate-Gradient optimizer
 CHAIN: Read ICHAIN            0
 
 POSCAR: Pt Pd O                                 
  positions in direct lattice
  velocities in cartesian coordinates
 


--------------------------------------------------------------------------------------------------------


 ion  position               nearest neighbor table
   1  0.726  0.571  0.495-  17 2.66   7 2.66  13 2.67   9 2.70  21 2.72  37 2.74
   2  0.571  0.726  0.495-  19 2.66   4 2.66  13 2.67  11 2.70  21 2.72  37 2.74
   3  0.279  0.576  0.503-  35 2.63  10 2.66   5 2.67  22 2.71  18 2.73  14 2.77
   4  0.423  0.721  0.504-  35 2.65   2 2.66  11 2.66  22 2.70  19 2.74  14 2.75
   5  0.277  0.428  0.497-  10 2.66   3 2.67  34 2.68  18 2.68  23 2.71  15 2.72
   6  0.428  0.277  0.497-  12 2.66   8 2.67  34 2.68  20 2.68  23 2.71  15 2.72
   7  0.721  0.423  0.504-  38 2.65   1 2.66   9 2.66  24 2.70  17 2.74  16 2.75
   8  0.576  0.279  0.503-  38 2.63  12 2.66   6 2.67  24 2.71  20 2.73  16 2.77
   9  0.662  0.504  0.613-  25 2.62  16 2.65   7 2.66   1 2.70  28 2.74  13 2.76  37 2.89  38 2.94
                            33 2.95
  10  0.337  0.496  0.614-  14 2.65  27 2.66   5 2.66   3 2.66  15 2.72  34 2.91  26 2.92  33 2.93
                            35 2.96
  11  0.504  0.662  0.613-  25 2.62  14 2.65   4 2.66   2 2.70  26 2.74  13 2.76  37 2.89  35 2.94
                            33 2.95
  12  0.496  0.337  0.614-  16 2.65  27 2.66   6 2.66   8 2.66  15 2.72  34 2.91  28 2.92  33 2.93
                            38 2.96
  13  0.656  0.656  0.594-  25 2.61   1 2.67   2 2.67  37 2.70  11 2.76   9 2.76
  14  0.359  0.642  0.618-  26 2.63  11 2.65  10 2.65  35 2.72   4 2.75   3 2.77
  15  0.346  0.346  0.604-  27 2.58  12 2.72  10 2.72   5 2.72   6 2.72  34 2.77
  16  0.642  0.359  0.618-  28 2.63   9 2.65  12 2.65  38 2.72   7 2.75   8 2.77
  17  0.661  0.497  0.385-   1 2.66  32 2.67  24 2.69  21 2.69  29 2.71   7 2.74  38 2.90  36 2.91
                            37 2.93
  18  0.339  0.503  0.384-   5 2.68  30 2.69  23 2.70  22 2.70  31 2.71   3 2.73  35 2.90  36 2.91
                            34 2.95
  19  0.497  0.661  0.385-   2 2.66  30 2.67  22 2.69  21 2.69  29 2.71   4 2.74  35 2.90  36 2.91
                            37 2.93
  20  0.503  0.339  0.384-   6 2.68  32 2.69  23 2.70  24 2.70  31 2.71   8 2.73  38 2.90  36 2.91
                            34 2.95
  21  0.645  0.645  0.392-  29 2.64  37 2.64  17 2.69  19 2.69   1 2.72   2 2.72
  22  0.348  0.653  0.393-  30 2.68  19 2.69  18 2.70   4 2.70   3 2.71  35 2.77
  23  0.355  0.355  0.391-  31 2.64  34 2.65  20 2.70  18 2.70   6 2.71   5 2.71
  24  0.653  0.348  0.393-  32 2.68  17 2.69  20 2.70   7 2.70   8 2.71  38 2.77
  25  0.590  0.590  0.705-  13 2.61  11 2.62   9 2.62  26 2.74  28 2.74  33 2.96
  26  0.440  0.570  0.715-  39 2.11  33 2.61  14 2.63  11 2.74  25 2.74  27 2.84  10 2.92  28 3.32

  27  0.414  0.414  0.709-  39 2.03  15 2.58  12 2.66  10 2.66  28 2.84  26 2.84  33 2.88
  28  0.570  0.440  0.715-  39 2.11  33 2.61  16 2.63   9 2.74  25 2.74  27 2.84  12 2.92  26 3.32

  29  0.571  0.571  0.290-  36 2.61  21 2.64  30 2.70  32 2.70  19 2.71  17 2.71
  30  0.422  0.580  0.286-  19 2.67  22 2.68  18 2.69  29 2.70  31 2.72  36 2.80
  31  0.429  0.429  0.289-  36 2.61  23 2.64  18 2.71  20 2.71  32 2.72  30 2.72
  32  0.580  0.422  0.286-  17 2.67  24 2.68  20 2.69  29 2.70  31 2.72  36 2.80
  33  0.499  0.499  0.604-  26 2.61  28 2.61  34 2.65  35 2.65  38 2.65  37 2.69  27 2.88  10 2.93
                            12 2.93  11 2.95   9 2.95  25 2.96
  34  0.426  0.426  0.499-  33 2.65  23 2.65  38 2.67  35 2.67  36 2.67   6 2.68   5 2.68  15 2.77
                            10 2.91  12 2.91  18 2.95  20 2.95
  35  0.426  0.574  0.500-   3 2.63   4 2.65  33 2.65  34 2.67  37 2.67  36 2.68  14 2.72  22 2.77
                            19 2.90  18 2.90  11 2.94  10 2.96
  36  0.500  0.500  0.394-  31 2.61  29 2.61  37 2.67  34 2.67  35 2.68  38 2.68  30 2.80  32 2.80
                            17 2.91  19 2.91  18 2.91  20 2.91
  37  0.574  0.574  0.499-  21 2.64  36 2.67  38 2.67  35 2.67  33 2.69  13 2.70   1 2.74   2 2.74
                            11 2.89   9 2.89  17 2.93  19 2.93
  38  0.574  0.426  0.500-   8 2.63   7 2.65  33 2.65  34 2.67  37 2.67  36 2.68  16 2.72  24 2.77
                            17 2.90  20 2.90   9 2.94  12 2.96
  39  0.478  0.478  0.777-  27 2.03  28 2.11  26 2.11
 

IMPORTANT INFORMATION: All symmetrisations will be switched off!
NOSYMM: (Re-)initialisation of all symmetry stuff for point group C_1.

 
 
 KPOINTS: Automatic Mesh                          

Automatic generation of k-mesh.
Space group operators:
 irot       det(A)        alpha          n_x          n_y          n_z        tau_x        tau_y        tau_z
    1     1.000000     0.000000     1.000000     0.000000     0.000000     0.000000     0.000000     0.000000
 
 Subroutine IBZKPT returns following result:
 ===========================================
 
 Found      1 irreducible k-points:
 
 Following reciprocal coordinates:
            Coordinates               Weight
  0.000000  0.000000  0.000000      1.000000
 
 Following cartesian coordinates:
            Coordinates               Weight
  0.000000  0.000000  0.000000      1.000000
 


--------------------------------------------------------------------------------------------------------




 Dimension of arrays:
   k-points           NKPTS =      1   k-points in BZ     NKDIM =      1   number of bands    NBANDS=    232
   number of dos      NEDOS =    301   number of ions     NIONS =     39
   non local maximal  LDIM  =      6   non local SUM 2l+1 LMDIM =     18
   total plane-waves  NPLWV = 512000
   max r-space proj   IRMAX =   2087   max aug-charges    IRDMAX=   5516
   dimension x,y,z NGX =    80 NGY =   80 NGZ =   80
   dimension x,y,z NGXF=   160 NGYF=  160 NGZF=  160
   support grid    NGXF=   160 NGYF=  160 NGZF=  160
   ions per type =              32   6   1
 NGX,Y,Z   is equivalent  to a cutoff of   7.39,  7.39,  7.39 a.u.
 NGXF,Y,Z  is equivalent  to a cutoff of  14.78, 14.78, 14.78 a.u.


 I would recommend the setting:
   dimension x,y,z NGX =    73 NGY =   73 NGZ =   73
 SYSTEM =  Pt cube particle                        
 POSCAR =  Pt Pd O                                 

 Startparameter for this run:
   NWRITE =      2    write-flag & timer
   PREC   = normal    normal or accurate (medium, high low for compatibility)
   ISTART =      0    job   : 0-new  1-cont  2-samecut
   ICHARG =      2    charge: 1-file 2-atom 10-const
   ISPIN  =      1    spin polarized calculation?
   LNONCOLLINEAR =      F non collinear calculations
   LSORBIT =      F    spin-orbit coupling
   INIWAV =      1    electr: 0-lowe 1-rand  2-diag
   LASPH  =      F    aspherical Exc in radial PAW
   METAGGA=      F    non-selfconsistent MetaGGA calc.

 Electronic Relaxation 1
   ENCUT  =  274.0 eV  20.14 Ry    4.49 a.u.  24.29 24.29 24.29*2*pi/ulx,y,z
   ENINI  =  274.0     initial cutoff
   ENAUG  =  416.2 eV  augmentation charge cutoff
   NELM   =     60;   NELMIN=  2; NELMDL=  0     # of ELM steps 
   EDIFF  = 0.1E-03   stopping-criterion for ELM
   LREAL  =      T    real-space projection
   NLSPLINE    = F    spline interpolate recip. space projectors
   LCOMPAT=      F    compatible to vasp.4.4
   GGA_COMPAT  = T    GGA compatible to vasp.4.4-vasp.4.6
   LMAXPAW     = -100 max onsite density
   LMAXMIX     =    2 max onsite mixed and CHGCAR
   VOSKOWN=      0    Vosko Wilk Nusair interpolation
   ROPT   =   -0.00050  -0.00050  -0.00050
 Ionic relaxation
   EDIFFG = -.5E-02   stopping-criterion for IOM
   NSW    =    200    number of steps for IOM
   NBLOCK =      1;   KBLOCK =    200    inner block; outer block 
   IBRION =      2    ionic relax: 0-MD 1-quasi-New 2-CG
   NFREE  =      1    steps in history (QN), initial steepest desc. (CG)
   ISIF   =      0    stress and relaxation
   IWAVPR =     11    prediction:  0-non 1-charg 2-wave 3-comb
   ISYM   =      0    0-nonsym 1-usesym 2-fastsym
   LCORR  =      T    Harris-Foulkes like correction to forces

   POTIM  = 0.1000    time-step for ionic-motion
   TEIN   =    0.0    initial temperature
   TEBEG  =    0.0;   TEEND  =   0.0 temperature during run
   SMASS  =  -3.00    Nose mass-parameter (am)
   estimated Nose-frequenzy (Omega)   =  0.10E-29 period in steps =****** mass=  -0.740E-26a.u.
   SCALEE = 1.0000    scale energy and forces
   NPACO  =    256;   APACO  = 16.0  distance and # of slots for P.C.
   PSTRESS=    0.0 pullay stress

  Mass of Ions in am
   POMASS = 195.08106.42 16.00
  Ionic Valenz
   ZVAL   =  10.00 10.00  6.00
  Atomic Wigner-Seitz radii
   RWIGS  =  -1.00 -1.00 -1.00
  virtual crystal weights 
   VCA    =   1.00  1.00  1.00
   NELECT =     386.0000    total number of electrons
   NUPDOWN=      -1.0000    fix difference up-down

 DOS related values:
   EMIN   =  10.00;   EMAX   =-10.00  energy-range for DOS
   EFERMI =   0.00
   ISMEAR =     1;   SIGMA  =   0.20  broadening in eV -4-tet -1-fermi 0-gaus

 Electronic relaxation 2 (details)
   IALGO  =     48    algorithm
   LDIAG  =      T    sub-space diagonalisation (order eigenvalues)
   LSUBROT=      F    optimize rotation matrix (better conditioning)
   TURBO    =      0    0=normal 1=particle mesh
   IRESTART =      0    0=no restart 2=restart with 2 vectors
   NREBOOT  =      0    no. of reboots
   NMIN     =      0    reboot dimension
   EREF     =   0.00    reference energy to select bands
   IMIX   =      4    mixing-type and parameters
     AMIX     =   0.40;   BMIX     =  1.00
     AMIX_MAG =   1.60;   BMIX_MAG =  1.00
     AMIN     =   0.10
     WC   =   100.;   INIMIX=   1;  MIXPRE=   1;  MAXMIX= -45

 Intra band minimization:
   WEIMIN = 0.0010     energy-eigenvalue tresh-hold
   EBREAK =  0.11E-06  absolut break condition
   DEPER  =   0.30     relativ break condition  

   TIME   =   0.40     timestep for ELM

  volume/ion in A,a.u.               =     149.54      1009.14
  Fermi-wavevector in a.u.,A,eV,Ry     =   0.662214  1.251402  5.966520  0.438527
  Thomas-Fermi vector in A             =   1.735214
 
 Write flags
   LWAVE  =      F    write WAVECAR
   LCHARG =      F    write CHGCAR
   LVTOT  =      F    write LOCPOT, total local potential
   LVHAR  =      F    write LOCPOT, Hartree potential only
   LELF   =      F    write electronic localiz. function (ELF)
   LORBIT =      0    0 simple, 1 ext, 2 COOP (PROOUT)


 Dipole corrections
   LMONO  =      F    monopole corrections only (constant potential shift)
   LDIPOL =      F    correct potential (dipole corrections)
   IDIPOL =      0    1-x, 2-y, 3-z, 4-all directions 
   EPSILON=  1.0000000 bulk dielectric constant

 Exchange correlation treatment:
   GGA     =    --    GGA type
   LEXCH   =     7    internal setting for exchange type
   VOSKOWN=      0    Vosko Wilk Nusair interpolation
   LHFCALC =     F    Hartree Fock is set to
   LHFONE  =     F    Hartree Fock one center treatment
   AEXX    =    0.0000 exact exchange contribution

 Linear response parameters
   LEPSILON=     F    determine dielectric tensor
   LRPA    =     F    only Hartree local field effects (RPA)
   LNABLA  =     F    use nabla operator in PAW spheres
   LVEL    =     F    velocity operator in full k-point grid
   LINTERFAST=   F  fast interpolation
   KINTER  =     0    interpolate to denser k-point grid
   CSHIFT  =0.1000    complex shift for real part using Kramers Kronig
   OMEGAMAX=  -1.0    maximum frequency
   DEG_THRESHOLD= 0.2000000E-02 threshold for treating states as degnerate
   RTIME   =    0.100 relaxation time in fs

 Orbital magnetization related:
   ORBITALMAG=     F  switch on orbital magnetization
   LCHIMAG   =     F  perturbation theory with respect to B field
   DQ        =  0.001000  dq finite difference perturbation B field



--------------------------------------------------------------------------------------------------------


 conjugate gradient relaxation of ions
   using selective dynamics as specified on POSCAR
 charge density and potential will be updated during run
 non-spin polarized calculation
 RMM-DIIS sequential band-by-band
 perform sub-space diagonalisation
    before iterative eigenvector-optimisation
 modified Broyden-mixing scheme, WC =      100.0
 initial mixing is a Kerker type mixing with AMIX =  0.4000 and BMIX =      1.0000
 Hartree-type preconditioning will be used
 using additional bands           39
 real space projection scheme for non local part
 use partial core corrections
 calculate Harris-corrections to forces 
   (improved forces if not selfconsistent)
 use gradient corrections 
 use of overlap-Matrix (Vanderbilt PP)
 Methfessel and Paxton  Order N= 1 SIGMA  =   0.20


--------------------------------------------------------------------------------------------------------


  energy-cutoff  :      274.00
  volume of cell :     5832.00
      direct lattice vectors                 reciprocal lattice vectors
    18.000000000  0.000000000  0.000000000     0.055555556  0.000000000  0.000000000
     0.000000000 18.000000000  0.000000000     0.000000000  0.055555556  0.000000000
     0.000000000  0.000000000 18.000000000     0.000000000  0.000000000  0.055555556

  length of vectors
    18.000000000 18.000000000 18.000000000     0.055555556  0.055555556  0.055555556


 
 k-points in units of 2pi/SCALE and weight: Automatic Mesh                          
   0.00000000  0.00000000  0.00000000       1.000
 
 k-points in reciprocal lattice and weights: Automatic Mesh                          
   0.00000000  0.00000000  0.00000000       1.000
 
 position of ions in fractional coordinates (direct lattice) 
   0.72648437  0.57060922  0.49506623
   0.57060956  0.72648438  0.49506605
   0.27941432  0.57601525  0.50331374
   0.42313994  0.72081014  0.50380470
   0.27694893  0.42800874  0.49696515
   0.42800874  0.27694901  0.49696529
   0.72080995  0.42313965  0.50380505
   0.57601516  0.27941435  0.50331404
   0.66231633  0.50403826  0.61307121
   0.33652407  0.49602875  0.61400431
   0.50403831  0.66231645  0.61307097
   0.49602855  0.33652421  0.61400449
   0.65601429  0.65601423  0.59403966
   0.35857903  0.64171542  0.61763218
   0.34578792  0.34578808  0.60350228
   0.64171522  0.35857897  0.61763267
   0.66104536  0.49670432  0.38501745
   0.33873405  0.50341549  0.38426328
   0.49670459  0.66104529  0.38501732
   0.50341552  0.33873394  0.38426339
   0.64532816  0.64532787  0.39195030
   0.34780704  0.65261278  0.39342497
   0.35468988  0.35468982  0.39113336
   0.65261278  0.34780678  0.39342512
   0.59015220  0.59015241  0.70542871
   0.43956129  0.56997165  0.71545317
   0.41411740  0.41411767  0.70911205
   0.56997134  0.43956149  0.71545339
   0.57115446  0.57115425  0.28967771
   0.42165920  0.57999970  0.28634908
   0.42931653  0.42931640  0.28942505
   0.57999982  0.42165896  0.28634917
   0.49900258  0.49900272  0.60372206
   0.42559653  0.42559658  0.49918789
   0.42574256  0.57391110  0.50013323
   0.49990285  0.49990276  0.39426576
   0.57414137  0.57414129  0.49876042
   0.57391103  0.42574251  0.50013338
   0.47799877  0.47799912  0.77679574
 
 position of ions in cartesian coordinates  (Angst):
  13.07671857 10.27096596  8.91119208
  10.27097201 13.07671891  8.91118887
   5.02945777 10.36827456  9.05964735
   7.61651885 12.97458248  9.06848462
   4.98508070  7.70415727  8.94537275
   7.70415727  4.98508214  8.94537526
  12.97457913  7.61651370  9.06849083
  10.36827288  5.02945827  9.05965269
  11.92169400  9.07268869 11.03528171
   6.05743328  8.92851755 11.05207755
   9.07268966 11.92169612 11.03527749
   8.92851393  6.05743579 11.05208074
  11.80825722 11.80825609 10.69271397
   6.45442252 11.55087758 11.11737930
   6.22418253  6.22418537 10.86304109
  11.55087393  6.45442141 11.11738799
  11.89881648  8.94067784  6.93031403
   6.09721284  9.06147876  6.91673897
   8.94068261 11.89881514  6.93031171
   9.06147929  6.09721092  6.91674102
  11.61590694 11.61590164  7.05510540
   6.26052665 11.74702998  7.08164938
   6.38441790  6.38441679  7.04040057
  11.74703011  6.26052206  7.08165215
  10.62273967 10.62274332 12.69771676
   7.91210326 10.25948965 12.87815701
   7.45411312  7.45411809 12.76401690
  10.25948421  7.91210673 12.87816094
  10.28078034 10.28077651  5.21419882
   7.58986557 10.43999464  5.15428352
   7.72769747  7.72769528  5.20965091
  10.43999675  7.58986133  5.15428506
   8.98204651  8.98204889 10.86699703
   7.66073758  7.66073852  8.98538201
   7.66336607 10.33039979  9.00239814
   8.99825134  8.99824965  7.09678369
  10.33454467 10.33454329  8.97768754
  10.33039855  7.66336512  9.00240087
   8.60397782  8.60398418 13.98232328
 


--------------------------------------------------------------------------------------------------------


 use parallel FFT for wavefunctions z direction half grid
 k-point  1 :   0.0000 0.0000 0.0000  plane waves:   30123

 maximum and minimum number of plane-waves per node :      7537     7520

 maximum number of plane-waves:     30123
 maximum index in each direction: 
   IXMAX=   24   IYMAX=   24   IZMAX=   24
   IXMIN=  -24   IYMIN=  -24   IZMIN=    0

 WARNING: aliasing errors must be expected set NGX to  98 to avoid them
 WARNING: aliasing errors must be expected set NGY to  98 to avoid them
 WARNING: aliasing errors must be expected set NGZ to  98 to avoid them
 aliasing errors are usually negligible using standard VASP settings
 and one can safely disregard these warnings

 real space projection operators:
  total allocation   :      10150.59 KBytes
  max/ min on nodes  :       2548.11       2530.03


 parallel 3D FFT for wavefunctions:
    minimum data exchange during FFTs selected (reduces bandwidth)
 parallel 3D FFT for charge:
    minimum data exchange during FFTs selected (reduces bandwidth)


 total amount of memory used by VASP on root node   105694. kBytes
========================================================================

   base      :      30000. kBytes
   nonlr-proj:       3131. kBytes
   fftplans  :      20116. kBytes
   grid      :      38220. kBytes
   one-center:         77. kBytes
   wavefun   :      14150. kBytes
 
     INWAV:  cpu time    0.0000: real time    0.0001
 Broyden mixing: mesh for mixing (old mesh)
   NGX = 49   NGY = 49   NGZ = 49
  (NGX  =160   NGY  =160   NGZ  =160)
  gives a total of 117649 points

 initial charge density was supplied:
 charge density of overlapping atoms calculated
 number of electron     386.0000000 magnetization 
 keeping initial charge density in first step


--------------------------------------------------------------------------------------------------------


 Maximum index for non-local projection operator          514
 Maximum index for augmentation-charges          682 (set IRDMAX)


--------------------------------------------------------------------------------------------------------


 First call to EWALD:  gamma=   0.098
 Maximum number of real-space cells 3x 3x 3
 Maximum number of reciprocal cells 3x 3x 3

 FEWALD executed in parallel
    FEWALD:  cpu time    0.0050: real time    0.0049


----------------------------------------- Iteration    1(   1)  ---------------------------------------


    POTLOK:  cpu time    2.2437: real time    2.2458
    SETDIJ:  cpu time    0.0230: real time    0.0233
    EDDIAG:  cpu time    3.7874: real time    3.7909
  RMM-DIIS:  cpu time    8.5917: real time    8.6015
    ORTHCH:  cpu time    0.3120: real time    0.3120
       DOS:  cpu time    0.0010: real time    0.0010
    --------------------------------------------
      LOOP:  cpu time   14.9647: real time   15.0041

 eigenvalue-minimisations  :   232
 total energy-change (2. order) : 0.4851209E+04  (-0.7114511E+04)
 number of electron     386.0000000 magnetization 
 augmentation part      386.0000000 magnetization 

 Free energy of the ion-electron system (eV)
  ---------------------------------------------------
  alpha Z        PSCENC =       362.96560263
  Ewald energy   TEWEN  =     69185.68759330
  -Hartree energ DENC   =    -96964.76345161
  -exchange      EXHF   =         0.00000000
  -V(xc)+E(xc)   XCENC  =       -75.08360720
  PAW double counting   =     22718.21794807   -21438.53612902
  entropy T*S    EENTRO =        -0.04985155
  eigenvalues    EBANDS =      2405.72722252
  atomic energy  EATOM  =     28657.04318630
  Solvation  Ediel_sol  =         0.00000000
  ---------------------------------------------------
  free energy    TOTEN  =      4851.20851343 eV

  energy without entropy =     4851.25836498  energy(sigma->0) =     4851.22513062


--------------------------------------------------------------------------------------------------------




----------------------------------------- Iteration    1(   2)  ---------------------------------------


    EDDIAG:  cpu time    3.7674: real time    3.7716
  RMM-DIIS:  cpu time    8.5467: real time    8.5800
    ORTHCH:  cpu time    0.3150: real time    0.3141
       DOS:  cpu time    0.0010: real time    0.0011
    --------------------------------------------
      LOOP:  cpu time   12.6311: real time   12.6692

 eigenvalue-minimisations  :   232
 total energy-change (2. order) :-0.2109965E+04  (-0.2336819E+04)
 number of electron     386.0000000 magnetization 
 augmentation part      386.0000000 magnetization 

 Free energy of the ion-electron system (eV)
  ---------------------------------------------------
  alpha Z        PSCENC =       362.96560263
  Ewald energy   TEWEN  =     69185.68759330
  -Hartree energ DENC   =    -96964.76345161
  -exchange      EXHF   =         0.00000000
  -V(xc)+E(xc)   XCENC  =       -75.08360720
  PAW double counting   =     22718.21794807   -21438.53612902
  entropy T*S    EENTRO =         0.02930333
  eigenvalues    EBANDS =       295.68337794
  atomic energy  EATOM  =     28657.04318630
  Solvation  Ediel_sol  =         0.00000000
  ---------------------------------------------------
  free energy    TOTEN  =      2741.24382374 eV

  energy without entropy =     2741.21452041  energy(sigma->0) =     2741.23405596


--------------------------------------------------------------------------------------------------------




----------------------------------------- Iteration    1(   3)  ---------------------------------------


    EDDIAG:  cpu time    3.7754: real time    3.7795
  RMM-DIIS:  cpu time    8.6307: real time    8.6502
    ORTHCH:  cpu time    0.3170: real time    0.3170
       DOS:  cpu time    0.0010: real time    0.0012
    --------------------------------------------
      LOOP:  cpu time   12.7261: real time   12.7512

 eigenvalue-minimisations  :   232
 total energy-change (2. order) :-0.9983855E+03  (-0.1279447E+04)
 number of electron     386.0000000 magnetization 
 augmentation part      386.0000000 magnetization 

 Free energy of the ion-electron system (eV)
  ---------------------------------------------------
  alpha Z        PSCENC =       362.96560263
  Ewald energy   TEWEN  =     69185.68759330
  -Hartree energ DENC   =    -96964.76345161
  -exchange      EXHF   =         0.00000000
  -V(xc)+E(xc)   XCENC  =       -75.08360720
  PAW double counting   =     22718.21794807   -21438.53612902
  entropy T*S    EENTRO =        -0.01522024
  eigenvalues    EBANDS =      -702.65758802
  atomic energy  EATOM  =     28657.04318630
  Solvation  Ediel_sol  =         0.00000000
  ---------------------------------------------------
  free energy    TOTEN  =      1742.85833420 eV

  energy without entropy =     1742.87355444  energy(sigma->0) =     1742.86340762


--------------------------------------------------------------------------------------------------------




----------------------------------------- Iteration    1(   4)  ---------------------------------------


    EDDIAG:  cpu time    3.8234: real time    3.8302
  RMM-DIIS:  cpu time    8.5597: real time    8.5738
    ORTHCH:  cpu time    0.3130: real time    0.3145
       DOS:  cpu time    0.0010: real time    0.0010
    --------------------------------------------
      LOOP:  cpu time   12.6991: real time   12.7223

 eigenvalue-minimisations  :   232
 total energy-change (2. order) :-0.7741690E+03  (-0.8206289E+03)
 number of electron     386.0000000 magnetization 
 augmentation part      386.0000000 magnetization 

 Free energy of the ion-electron system (eV)
  ---------------------------------------------------
  alpha Z        PSCENC =       362.96560263
  Ewald energy   TEWEN  =     69185.68759330
  -Hartree energ DENC   =    -96964.76345161
  -exchange      EXHF   =         0.00000000
  -V(xc)+E(xc)   XCENC  =       -75.08360720
  PAW double counting   =     22718.21794807   -21438.53612902
  entropy T*S    EENTRO =        -0.04346884
  eigenvalues    EBANDS =     -1476.79831251
  atomic energy  EATOM  =     28657.04318630
  Solvation  Ediel_sol  =         0.00000000
  ---------------------------------------------------
  free energy    TOTEN  =       968.68936111 eV

  energy without entropy =      968.73282995  energy(sigma->0) =      968.70385072


--------------------------------------------------------------------------------------------------------




----------------------------------------- Iteration    1(   5)  ---------------------------------------


    EDDIAG:  cpu time    3.7624: real time    3.8016
  RMM-DIIS:  cpu time    8.6137: real time    8.6218
    ORTHCH:  cpu time    0.3140: real time    0.3146
       DOS:  cpu time    0.0010: real time    0.0011
    --------------------------------------------
      LOOP:  cpu time   12.6931: real time   12.7417

 eigenvalue-minimisations  :   232
 total energy-change (2. order) :-0.4585463E+03  (-0.4233374E+03)
 number of electron     386.0000000 magnetization 
 augmentation part      386.0000000 magnetization 

 Free energy of the ion-electron system (eV)
  ---------------------------------------------------
  alpha Z        PSCENC =       362.96560263
  Ewald energy   TEWEN  =     69185.68759330
  -Hartree energ DENC   =    -96964.76345161
  -exchange      EXHF   =         0.00000000
  -V(xc)+E(xc)   XCENC  =       -75.08360720
  PAW double counting   =     22718.21794807   -21438.53612902
  entropy T*S    EENTRO =         0.01137860
  eigenvalues    EBANDS =     -1935.39950068
  atomic energy  EATOM  =     28657.04318630
  Solvation  Ediel_sol  =         0.00000000
  ---------------------------------------------------
  free energy    TOTEN  =       510.14302039 eV

  energy without entropy =      510.13164179  energy(sigma->0) =      510.13922752


--------------------------------------------------------------------------------------------------------




----------------------------------------- Iteration    1(   6)  ---------------------------------------


    EDDIAG:  cpu time    3.7874: real time    3.7916
  RMM-DIIS:  cpu time    8.5397: real time    8.5673
    ORTHCH:  cpu time    0.3140: real time    0.3140
       DOS:  cpu time    0.0020: real time    0.0012
    --------------------------------------------
      LOOP:  cpu time   12.6431: real time   12.6769

 eigenvalue-minimisations  :   232
 total energy-change (2. order) :-0.3050533E+03  (-0.2588252E+03)
 number of electron     386.0000000 magnetization 
 augmentation part      386.0000000 magnetization 

 Free energy of the ion-electron system (eV)
  ---------------------------------------------------
  alpha Z        PSCENC =       362.96560263
  Ewald energy   TEWEN  =     69185.68759330
  -Hartree energ DENC   =    -96964.76345161
  -exchange      EXHF   =         0.00000000
  -V(xc)+E(xc)   XCENC  =       -75.08360720
  PAW double counting   =     22718.21794807   -21438.53612902
  entropy T*S    EENTRO =         0.04155071
  eigenvalues    EBANDS =     -2240.48299900
  atomic energy  EATOM  =     28657.04318630
  Solvation  Ediel_sol  =         0.00000000
  ---------------------------------------------------
  free energy    TOTEN  =       205.08969418 eV

  energy without entropy =      205.04814347  energy(sigma->0) =      205.07584395


--------------------------------------------------------------------------------------------------------




----------------------------------------- Iteration    1(   7)  ---------------------------------------


    EDDIAG:  cpu time    3.8074: real time    3.8118
  RMM-DIIS:  cpu time    8.6237: real time    8.6350
    ORTHCH:  cpu time    0.3130: real time    0.3133
       DOS:  cpu time    0.0010: real time    0.0010
    --------------------------------------------
      LOOP:  cpu time   12.7461: real time   12.7637

 eigenvalue-minimisations  :   232
 total energy-change (2. order) :-0.1572796E+03  (-0.1314646E+03)
 number of electron     386.0000000 magnetization 
 augmentation part      386.0000000 magnetization 

 Free energy of the ion-electron system (eV)
  ---------------------------------------------------
  alpha Z        PSCENC =       362.96560263
  Ewald energy   TEWEN  =     69185.68759330
  -Hartree energ DENC   =    -96964.76345161
  -exchange      EXHF   =         0.00000000
  -V(xc)+E(xc)   XCENC  =       -75.08360720
  PAW double counting   =     22718.21794807   -21438.53612902
  entropy T*S    EENTRO =         0.05287169
  eigenvalues    EBANDS =     -2397.77396849
  atomic energy  EATOM  =     28657.04318630
  Solvation  Ediel_sol  =         0.00000000
  ---------------------------------------------------
  free energy    TOTEN  =        47.81004567 eV

  energy without entropy =       47.75717397  energy(sigma->0) =       47.79242177


--------------------------------------------------------------------------------------------------------




----------------------------------------- Iteration    1(   8)  ---------------------------------------


    EDDIAG:  cpu time    3.7984: real time    3.8028
  RMM-DIIS:  cpu time    8.6277: real time    8.6404
    ORTHCH:  cpu time    0.3130: real time    0.3132
       DOS:  cpu time    0.0010: real time    0.0011
    --------------------------------------------
      LOOP:  cpu time   12.7411: real time   12.7609

 eigenvalue-minimisations  :   232
 total energy-change (2. order) :-0.1067174E+03  (-0.8414272E+02)
 number of electron     386.0000000 magnetization 
 augmentation part      386.0000000 magnetization 

 Free energy of the ion-electron system (eV)
  ---------------------------------------------------
  alpha Z        PSCENC =       362.96560263
  Ewald energy   TEWEN  =     69185.68759330
  -Hartree energ DENC   =    -96964.76345161
  -exchange      EXHF   =         0.00000000
  -V(xc)+E(xc)   XCENC  =       -75.08360720
  PAW double counting   =     22718.21794807   -21438.53612902
  entropy T*S    EENTRO =        -0.06342622
  eigenvalues    EBANDS =     -2504.37505889
  atomic energy  EATOM  =     28657.04318630
  Solvation  Ediel_sol  =         0.00000000
  ---------------------------------------------------
  free energy    TOTEN  =       -58.90734265 eV

  energy without entropy =      -58.84391643  energy(sigma->0) =      -58.88620057


--------------------------------------------------------------------------------------------------------




----------------------------------------- Iteration    1(   9)  ---------------------------------------


    EDDIAG:  cpu time    3.8034: real time    3.8098
  RMM-DIIS:  cpu time   22.0067: real time   22.0764
    ORTHCH:  cpu time    0.3130: real time    0.3125
       DOS:  cpu time    0.0010: real time    0.0010
    --------------------------------------------
      LOOP:  cpu time   26.1270: real time   26.2023

 eigenvalue-minimisations  :   646
 total energy-change (2. order) :-0.9219329E+02  (-0.8216038E+02)
 number of electron     386.0000000 magnetization 
 augmentation part      386.0000000 magnetization 

 Free energy of the ion-electron system (eV)
  ---------------------------------------------------
  alpha Z        PSCENC =       362.96560263
  Ewald energy   TEWEN  =     69185.68759330
  -Hartree energ DENC   =    -96964.76345161
  -exchange      EXHF   =         0.00000000
  -V(xc)+E(xc)   XCENC  =       -75.08360720
  PAW double counting   =     22718.21794807   -21438.53612902
  entropy T*S    EENTRO =         0.02360307
  eigenvalues    EBANDS =     -2596.65537917
  atomic energy  EATOM  =     28657.04318630
  Solvation  Ediel_sol  =         0.00000000
  ---------------------------------------------------
  free energy    TOTEN  =      -151.10063363 eV

  energy without entropy =     -151.12423670  energy(sigma->0) =     -151.10850132


--------------------------------------------------------------------------------------------------------




----------------------------------------- Iteration    1(  10)  ---------------------------------------


    EDDIAG:  cpu time    3.7584: real time    3.7621
  RMM-DIIS:  cpu time   24.4833: real time   24.5161
    ORTHCH:  cpu time    0.3130: real time    0.3134
       DOS:  cpu time    0.0010: real time    0.0010
    --------------------------------------------
      LOOP:  cpu time   28.5557: real time   28.5951

 eigenvalue-minimisations  :   724
 total energy-change (2. order) :-0.3345548E+02  (-0.3029086E+02)
 number of electron     386.0000000 magnetization 
 augmentation part      386.0000000 magnetization 

 Free energy of the ion-electron system (eV)
  ---------------------------------------------------
  alpha Z        PSCENC =       362.96560263
  Ewald energy   TEWEN  =     69185.68759330
  -Hartree energ DENC   =    -96964.76345161
  -exchange      EXHF   =         0.00000000
  -V(xc)+E(xc)   XCENC  =       -75.08360720
  PAW double counting   =     22718.21794807   -21438.53612902
  entropy T*S    EENTRO =        -0.10675146
  eigenvalues    EBANDS =     -2629.98050672
  atomic energy  EATOM  =     28657.04318630
  Solvation  Ediel_sol  =         0.00000000
  ---------------------------------------------------
  free energy    TOTEN  =      -184.55611572 eV

  energy without entropy =     -184.44936426  energy(sigma->0) =     -184.52053190


--------------------------------------------------------------------------------------------------------




----------------------------------------- Iteration    1(  11)  ---------------------------------------


    EDDIAG:  cpu time    3.8244: real time    3.8295
  RMM-DIIS:  cpu time   24.9982: real time   25.0525
    ORTHCH:  cpu time    0.3150: real time    0.3153
       DOS:  cpu time    0.0010: real time    0.0010
    --------------------------------------------
      LOOP:  cpu time   29.1396: real time   29.2016

 eigenvalue-minimisations  :   734
 total energy-change (2. order) :-0.1066165E+02  (-0.9435446E+01)
 number of electron     386.0000000 magnetization 
 augmentation part      386.0000000 magnetization 

 Free energy of the ion-electron system (eV)
  ---------------------------------------------------
  alpha Z        PSCENC =       362.96560263
  Ewald energy   TEWEN  =     69185.68759330
  -Hartree energ DENC   =    -96964.76345161
  -exchange      EXHF   =         0.00000000
  -V(xc)+E(xc)   XCENC  =       -75.08360720
  PAW double counting   =     22718.21794807   -21438.53612902
  entropy T*S    EENTRO =         0.05724200
  eigenvalues    EBANDS =     -2640.80615275
  atomic energy  EATOM  =     28657.04318630
  Solvation  Ediel_sol  =         0.00000000
  ---------------------------------------------------
  free energy    TOTEN  =      -195.21776828 eV

  energy without entropy =     -195.27501028  energy(sigma->0) =     -195.23684894


--------------------------------------------------------------------------------------------------------




----------------------------------------- Iteration    1(  12)  ---------------------------------------


    EDDIAG:  cpu time    3.7604: real time    3.7655
  RMM-DIIS:  cpu time   25.1092: real time   25.1829
    ORTHCH:  cpu time    0.3160: real time    0.3154
       DOS:  cpu time    0.0010: real time    0.0011
    CHARGE:  cpu time    1.9507: real time    1.9530
    MIXING:  cpu time    0.0500: real time    0.0503
    --------------------------------------------
      LOOP:  cpu time   31.1893: real time   31.2720

 eigenvalue-minimisations  :   739
 total energy-change (2. order) :-0.4147978E+01  (-0.3103142E+01)
 number of electron     386.0000443 magnetization 
 augmentation part      121.2315388 magnetization 

 Broyden mixing:
  rms(total) = 0.23417E+01    rms(broyden)= 0.23396E+01
  rms(prec ) = 0.27426E+01
  weight for this iteration     100.00

 Free energy of the ion-electron system (eV)
  ---------------------------------------------------
  alpha Z        PSCENC =       362.96560263
  Ewald energy   TEWEN  =     69185.68759330
  -Hartree energ DENC   =    -96964.76345161
  -exchange      EXHF   =         0.00000000
  -V(xc)+E(xc)   XCENC  =       -75.08360720
  PAW double counting   =     22718.21794807   -21438.53612902
  entropy T*S    EENTRO =        -0.01166410
  eigenvalues    EBANDS =     -2644.88522496
  atomic energy  EATOM  =     28657.04318630
  Solvation  Ediel_sol  =         0.00000000
  ---------------------------------------------------
  free energy    TOTEN  =      -199.36574659 eV

  energy without entropy =     -199.35408249  energy(sigma->0) =     -199.36185856


--------------------------------------------------------------------------------------------------------




----------------------------------------- Iteration    1(  13)  ---------------------------------------


    POTLOK:  cpu time    2.0917: real time    2.0944
    SETDIJ:  cpu time    0.0250: real time    0.0254
    EDDIAG:  cpu time    3.7454: real time    3.7502
  RMM-DIIS:  cpu time   17.4483: real time   17.5831
    ORTHCH:  cpu time    0.3120: real time    0.3118
       DOS:  cpu time    0.0010: real time    0.0012
    CHARGE:  cpu time    1.9847: real time    1.9912
    MIXING:  cpu time    0.0520: real time    0.0521
    --------------------------------------------
      LOOP:  cpu time   25.6621: real time   25.8135

 eigenvalue-minimisations  :   515
 total energy-change (2. order) : 0.1061582E+01  (-0.1170524E+02)
 number of electron     386.0000472 magnetization 
 augmentation part      123.0979324 magnetization 

 Broyden mixing:
  rms(total) = 0.27819E+01    rms(broyden)= 0.27804E+01
  rms(prec ) = 0.36219E+01
  weight for this iteration     100.00

 eigenvalues of (default mixing * dielectric matrix)
  average eigenvalue GAMMA=   0.4319
  0.4319

 Free energy of the ion-electron system (eV)
  ---------------------------------------------------
  alpha Z        PSCENC =       362.96560263
  Ewald energy   TEWEN  =     69185.68759330
  -Hartree energ DENC   =    -96822.84570608
  -exchange      EXHF   =         0.00000000
  -V(xc)+E(xc)   XCENC  =       -83.58885857
  PAW double counting   =     22708.28545502   -21471.40687885
  entropy T*S    EENTRO =        -0.00434897
  eigenvalues    EBANDS =     -2734.44020948
  atomic energy  EATOM  =     28657.04318630
  Solvation  Ediel_sol  =         0.00000000
  ---------------------------------------------------
  free energy    TOTEN  =      -198.30416469 eV

  energy without entropy =     -198.29981572  energy(sigma->0) =     -198.30271503


--------------------------------------------------------------------------------------------------------




----------------------------------------- Iteration    1(  14)  ---------------------------------------


    POTLOK:  cpu time    2.1447: real time    2.1520
    SETDIJ:  cpu time    0.0240: real time    0.0243
    EDDIAG:  cpu time    3.7524: real time    3.7631
  RMM-DIIS:  cpu time   17.5433: real time   17.6049
    ORTHCH:  cpu time    0.3130: real time    0.3134
       DOS:  cpu time    0.0010: real time    0.0012
    CHARGE:  cpu time    1.8747: real time    1.9167
    MIXING:  cpu time    0.0530: real time    0.0545
    --------------------------------------------
      LOOP:  cpu time   25.7081: real time   25.8333

 eigenvalue-minimisations  :   517
 total energy-change (2. order) : 0.7465463E+01  (-0.5031541E+01)
 number of electron     386.0000428 magnetization 
 augmentation part      127.4824094 magnetization 

 Broyden mixing:
  rms(total) = 0.12405E+01    rms(broyden)= 0.12380E+01
  rms(prec ) = 0.16245E+01
  weight for this iteration     100.00

 eigenvalues of (default mixing * dielectric matrix)
  average eigenvalue GAMMA=   0.6270
  0.2885  0.9656

 Free energy of the ion-electron system (eV)
  ---------------------------------------------------
  alpha Z        PSCENC =       362.96560263
  Ewald energy   TEWEN  =     69185.68759330
  -Hartree energ DENC   =    -96689.99069482
  -exchange      EXHF   =         0.00000000
  -V(xc)+E(xc)   XCENC  =       -84.32323435
  PAW double counting   =     22708.55999745   -21480.28089689
  entropy T*S    EENTRO =         0.07044983
  eigenvalues    EBANDS =     -2850.57070516
  atomic energy  EATOM  =     28657.04318630
  Solvation  Ediel_sol  =         0.00000000
  ---------------------------------------------------
  free energy    TOTEN  =      -190.83870170 eV

  energy without entropy =     -190.90915154  energy(sigma->0) =     -190.86218498


--------------------------------------------------------------------------------------------------------




----------------------------------------- Iteration    1(  15)  ---------------------------------------


    POTLOK:  cpu time    2.1147: real time    2.1241
    SETDIJ:  cpu time    0.0250: real time    0.0247
    EDDIAG:  cpu time    3.6894: real time    3.7028
  RMM-DIIS:  cpu time   19.1621: real time   19.2223
    ORTHCH:  cpu time    0.3080: real time    0.3088
       DOS:  cpu time    0.0020: real time    0.0012
    CHARGE:  cpu time    1.9117: real time    1.9184
    MIXING:  cpu time    0.0550: real time    0.0552
    --------------------------------------------
      LOOP:  cpu time   27.2709: real time   27.3672

 eigenvalue-minimisations  :   562
 total energy-change (2. order) : 0.1403108E+01  (-0.1799078E+01)
 number of electron     386.0000451 magnetization 
 augmentation part      127.8311897 magnetization 

 Broyden mixing:
  rms(total) = 0.86275E+00    rms(broyden)= 0.86104E+00
  rms(prec ) = 0.12350E+01
  weight for this iteration     100.00

 eigenvalues of (default mixing * dielectric matrix)
  average eigenvalue GAMMA=   0.6148
  1.1320  0.3321  0.3804

 Free energy of the ion-electron system (eV)
  ---------------------------------------------------
  alpha Z        PSCENC =       362.96560263
  Ewald energy   TEWEN  =     69185.68759330
  -Hartree energ DENC   =    -96715.62231948
  -exchange      EXHF   =         0.00000000
  -V(xc)+E(xc)   XCENC  =       -85.62026934
  PAW double counting   =     22907.10065386   -21689.81323740
  entropy T*S    EENTRO =        -0.01031338
  eigenvalues    EBANDS =     -2811.16648984
  atomic energy  EATOM  =     28657.04318630
  Solvation  Ediel_sol  =         0.00000000
  ---------------------------------------------------
  free energy    TOTEN  =      -189.43559333 eV

  energy without entropy =     -189.42527996  energy(sigma->0) =     -189.43215554


--------------------------------------------------------------------------------------------------------




----------------------------------------- Iteration    1(  16)  ---------------------------------------


    POTLOK:  cpu time    2.1007: real time    2.1182
    SETDIJ:  cpu time    0.0240: real time    0.0239
    EDDIAG:  cpu time    3.7134: real time    3.7577
  RMM-DIIS:  cpu time   19.0021: real time   19.0724
    ORTHCH:  cpu time    0.3100: real time    0.3094
       DOS:  cpu time    0.0010: real time    0.0011
    CHARGE:  cpu time    1.9617: real time    1.9679
    MIXING:  cpu time    0.0570: real time    0.0569
    --------------------------------------------
      LOOP:  cpu time   27.1719: real time   27.3116

 eigenvalue-minimisations  :   557
 total energy-change (2. order) : 0.1490740E+00  (-0.8198389E+00)
 number of electron     386.0000449 magnetization 
 augmentation part      128.1240397 magnetization 

 Broyden mixing:
  rms(total) = 0.72690E+00    rms(broyden)= 0.72533E+00
  rms(prec ) = 0.10732E+01
  weight for this iteration     100.00

 eigenvalues of (default mixing * dielectric matrix)
  average eigenvalue GAMMA=   0.5819
  1.2167  0.5634  0.3226  0.2248

 Free energy of the ion-electron system (eV)
  ---------------------------------------------------
  alpha Z        PSCENC =       362.96560263
  Ewald energy   TEWEN  =     69185.68759330
  -Hartree energ DENC   =    -96733.72451042
  -exchange      EXHF   =         0.00000000
  -V(xc)+E(xc)   XCENC  =       -85.64027803
  PAW double counting   =     23017.84435714   -21805.09760661
  entropy T*S    EENTRO =        -0.02536014
  eigenvalues    EBANDS =     -2788.33950348
  atomic energy  EATOM  =     28657.04318630
  Solvation  Ediel_sol  =         0.00000000
  ---------------------------------------------------
  free energy    TOTEN  =      -189.28651930 eV

  energy without entropy =     -189.26115916  energy(sigma->0) =     -189.27806592


--------------------------------------------------------------------------------------------------------




----------------------------------------- Iteration    1(  17)  ---------------------------------------


    POTLOK:  cpu time    2.1117: real time    2.1218
    SETDIJ:  cpu time    0.0240: real time    0.0245
    EDDIAG:  cpu time    3.6834: real time    3.7058
  RMM-DIIS:  cpu time   19.1421: real time   19.2445
    ORTHCH:  cpu time    0.3080: real time    0.3113
       DOS:  cpu time    0.0010: real time    0.0012
    CHARGE:  cpu time    1.9467: real time    1.9545
    MIXING:  cpu time    0.0600: real time    0.0594
    --------------------------------------------
      LOOP:  cpu time   27.2799: real time   27.4269

 eigenvalue-minimisations  :   563
 total energy-change (2. order) : 0.1560335E+00  (-0.3789682E+00)
 number of electron     386.0000456 magnetization 
 augmentation part      128.1125346 magnetization 

 Broyden mixing:
  rms(total) = 0.51621E+00    rms(broyden)= 0.51442E+00
  rms(prec ) = 0.67511E+00
  weight for this iteration     100.00

 eigenvalues of (default mixing * dielectric matrix)
  average eigenvalue GAMMA=   0.5433
  1.2164  0.6503  0.3798  0.2871  0.1828

 Free energy of the ion-electron system (eV)
  ---------------------------------------------------
  alpha Z        PSCENC =       362.96560263
  Ewald energy   TEWEN  =     69185.68759330
  -Hartree energ DENC   =    -96754.46127432
  -exchange      EXHF   =         0.00000000
  -V(xc)+E(xc)   XCENC  =       -85.35476322
  PAW double counting   =     23113.26569178   -21903.03911401
  entropy T*S    EENTRO =         0.05219996
  eigenvalues    EBANDS =     -2765.28960822
  atomic energy  EATOM  =     28657.04318630
  Solvation  Ediel_sol  =         0.00000000
  ---------------------------------------------------
  free energy    TOTEN  =      -189.13048580 eV

  energy without entropy =     -189.18268576  energy(sigma->0) =     -189.14788578


--------------------------------------------------------------------------------------------------------




----------------------------------------- Iteration    1(  18)  ---------------------------------------


    POTLOK:  cpu time    2.1177: real time    2.1247
    SETDIJ:  cpu time    0.0240: real time    0.0243
    EDDIAG:  cpu time    3.6924: real time    3.7067
  RMM-DIIS:  cpu time   18.4432: real time   18.5548
    ORTHCH:  cpu time    0.3110: real time    0.3109
       DOS:  cpu time    0.0010: real time    0.0013
    CHARGE:  cpu time    1.9607: real time    1.9666
    MIXING:  cpu time    0.0610: real time    0.0609
    --------------------------------------------
      LOOP:  cpu time   26.6120: real time   26.7538

 eigenvalue-minimisations  :   545
 total energy-change (2. order) : 0.1182363E+00  (-0.1493748E+00)
 number of electron     386.0000455 magnetization 
 augmentation part      127.9829456 magnetization 

 Broyden mixing:
  rms(total) = 0.34585E+00    rms(broyden)= 0.34483E+00
  rms(prec ) = 0.42504E+00
  weight for this iteration     100.00

 eigenvalues of (default mixing * dielectric matrix)
  average eigenvalue GAMMA=   0.5599
  1.0453  1.0453  0.5115  0.3205  0.2621  0.1743

 Free energy of the ion-electron system (eV)
  ---------------------------------------------------
  alpha Z        PSCENC =       362.96560263
  Ewald energy   TEWEN  =     69185.68759330
  -Hartree energ DENC   =    -96772.12233481
  -exchange      EXHF   =         0.00000000
  -V(xc)+E(xc)   XCENC  =       -85.11143744
  PAW double counting   =     23181.33987582   -21972.17599251
  entropy T*S    EENTRO =         0.05229809
  eigenvalues    EBANDS =     -2746.69104092
  atomic energy  EATOM  =     28657.04318630
  Solvation  Ediel_sol  =         0.00000000
  ---------------------------------------------------
  free energy    TOTEN  =      -189.01224953 eV

  energy without entropy =     -189.06454762  energy(sigma->0) =     -189.02968223


--------------------------------------------------------------------------------------------------------




----------------------------------------- Iteration    1(  19)  ---------------------------------------


    POTLOK:  cpu time    2.1247: real time    2.1342
    SETDIJ:  cpu time    0.0240: real time    0.0244
    EDDIAG:  cpu time    3.7434: real time    3.7556
  RMM-DIIS:  cpu time   18.4892: real time   18.5927
    ORTHCH:  cpu time    0.3130: real time    0.3124
       DOS:  cpu time    0.0010: real time    0.0012
    CHARGE:  cpu time    1.9437: real time    1.9740
    MIXING:  cpu time    0.0630: real time    0.0627
    --------------------------------------------
      LOOP:  cpu time   26.7039: real time   26.8611

 eigenvalue-minimisations  :   545
 total energy-change (2. order) :-0.2790833E-01  (-0.5814231E-01)
 number of electron     386.0000455 magnetization 
 augmentation part      127.7492217 magnetization 

 Broyden mixing:
  rms(total) = 0.32479E+00    rms(broyden)= 0.32409E+00
  rms(prec ) = 0.43392E+00
  weight for this iteration     100.00

 eigenvalues of (default mixing * dielectric matrix)
  average eigenvalue GAMMA=   0.5996
  1.2679  1.2679  0.5764  0.4217  0.2931  0.1581  0.2122

 Free energy of the ion-electron system (eV)
  ---------------------------------------------------
  alpha Z        PSCENC =       362.96560263
  Ewald energy   TEWEN  =     69185.68759330
  -Hartree energ DENC   =    -96790.52731188
  -exchange      EXHF   =         0.00000000
  -V(xc)+E(xc)   XCENC  =       -84.85410572
  PAW double counting   =     23250.84592426   -22042.33937768
  entropy T*S    EENTRO =         0.05592667
  eigenvalues    EBANDS =     -2727.91759573
  atomic energy  EATOM  =     28657.04318630
  Solvation  Ediel_sol  =         0.00000000
  ---------------------------------------------------
  free energy    TOTEN  =      -189.04015786 eV

  energy without entropy =     -189.09608453  energy(sigma->0) =     -189.05880009


--------------------------------------------------------------------------------------------------------




----------------------------------------- Iteration    1(  20)  ---------------------------------------


    POTLOK:  cpu time    2.1377: real time    2.1452
    SETDIJ:  cpu time    0.0240: real time    0.0242
    EDDIAG:  cpu time    3.7064: real time    3.7180
  RMM-DIIS:  cpu time   17.4314: real time   17.5416
    ORTHCH:  cpu time    0.3130: real time    0.3129
       DOS:  cpu time    0.0010: real time    0.0012
    CHARGE:  cpu time    1.9757: real time    1.9839
    MIXING:  cpu time    0.0650: real time    0.0648
    --------------------------------------------
      LOOP:  cpu time   25.6551: real time   25.7950

 eigenvalue-minimisations  :   513
 total energy-change (2. order) : 0.2589842E-01  (-0.2969042E-01)
 number of electron     386.0000455 magnetization 
 augmentation part      127.6255082 magnetization 

 Broyden mixing:
  rms(total) = 0.23873E+00    rms(broyden)= 0.23787E+00
  rms(prec ) = 0.31635E+00
  weight for this iteration     100.00

 eigenvalues of (default mixing * dielectric matrix)
  average eigenvalue GAMMA=   0.6783
  1.8727  1.0601  1.0601  0.4875  0.3390  0.2693  0.1892  0.1484

 Free energy of the ion-electron system (eV)
  ---------------------------------------------------
  alpha Z        PSCENC =       362.96560263
  Ewald energy   TEWEN  =     69185.68759330
  -Hartree energ DENC   =    -96811.21022707
  -exchange      EXHF   =         0.00000000
  -V(xc)+E(xc)   XCENC  =       -84.58056556
  PAW double counting   =     23334.49907906   -22127.04482864
  entropy T*S    EENTRO =         0.06505776
  eigenvalues    EBANDS =     -2706.43915722
  atomic energy  EATOM  =     28657.04318630
  Solvation  Ediel_sol  =         0.00000000
  ---------------------------------------------------
  free energy    TOTEN  =      -189.01425944 eV

  energy without entropy =     -189.07931721  energy(sigma->0) =     -189.03594536


--------------------------------------------------------------------------------------------------------




----------------------------------------- Iteration    1(  21)  ---------------------------------------


    POTLOK:  cpu time    2.1527: real time    2.1579
    SETDIJ:  cpu time    0.0250: real time    0.0249
    EDDIAG:  cpu time    3.7184: real time    3.7306
  RMM-DIIS:  cpu time   17.0024: real time   17.0684
    ORTHCH:  cpu time    0.3120: real time    0.3121
       DOS:  cpu time    0.0010: real time    0.0011
    CHARGE:  cpu time    1.9657: real time    1.9741
    MIXING:  cpu time    0.0670: real time    0.0670
    --------------------------------------------
      LOOP:  cpu time   25.2462: real time   25.3394

 eigenvalue-minimisations  :   499
 total energy-change (2. order) : 0.1685768E-02  (-0.2235623E-01)
 number of electron     386.0000455 magnetization 
 augmentation part      127.5703185 magnetization 

 Broyden mixing:
  rms(total) = 0.19522E+00    rms(broyden)= 0.19452E+00
  rms(prec ) = 0.26187E+00
  weight for this iteration     100.00

 eigenvalues of (default mixing * dielectric matrix)
  average eigenvalue GAMMA=   0.7147
  2.2539  1.1909  1.1909  0.4592  0.4592  0.2745  0.2745  0.1832  0.1463

 Free energy of the ion-electron system (eV)
  ---------------------------------------------------
  alpha Z        PSCENC =       362.96560263
  Ewald energy   TEWEN  =     69185.68759330
  -Hartree energ DENC   =    -96826.57075373
  -exchange      EXHF   =         0.00000000
  -V(xc)+E(xc)   XCENC  =       -84.43623994
  PAW double counting   =     23409.59275482   -22203.73340979
  entropy T*S    EENTRO =         0.07110780
  eigenvalues    EBANDS =     -2689.63241507
  atomic energy  EATOM  =     28657.04318630
  Solvation  Ediel_sol  =         0.00000000
  ---------------------------------------------------
  free energy    TOTEN  =      -189.01257368 eV

  energy without entropy =     -189.08368148  energy(sigma->0) =     -189.03627628


--------------------------------------------------------------------------------------------------------




----------------------------------------- Iteration    1(  22)  ---------------------------------------


    POTLOK:  cpu time    2.1617: real time    2.1674
    SETDIJ:  cpu time    0.0230: real time    0.0246
    EDDIAG:  cpu time    3.7134: real time    3.7229
  RMM-DIIS:  cpu time   16.9234: real time   16.9804
    ORTHCH:  cpu time    0.3150: real time    0.3148
       DOS:  cpu time    0.0010: real time    0.0011
    CHARGE:  cpu time    1.9777: real time    1.9850
    MIXING:  cpu time    0.0780: real time    0.0775
    --------------------------------------------
      LOOP:  cpu time   25.1942: real time   25.2776

 eigenvalue-minimisations  :   497
 total energy-change (2. order) : 0.2484284E-01  (-0.9856100E-02)
 number of electron     386.0000456 magnetization 
 augmentation part      127.6157873 magnetization 

 Broyden mixing:
  rms(total) = 0.16692E+00    rms(broyden)= 0.16654E+00
  rms(prec ) = 0.25374E+00
  weight for this iteration     100.00

 eigenvalues of (default mixing * dielectric matrix)
  average eigenvalue GAMMA=   0.6838
  2.3264  1.2184  1.2184  0.4892  0.4892  0.2815  0.2815  0.1464  0.1819  0.2048

 Free energy of the ion-electron system (eV)
  ---------------------------------------------------
  alpha Z        PSCENC =       362.96560263
  Ewald energy   TEWEN  =     69185.68759330
  -Hartree energ DENC   =    -96828.17817926
  -exchange      EXHF   =         0.00000000
  -V(xc)+E(xc)   XCENC  =       -84.46028842
  PAW double counting   =     23427.86079548   -22222.98752946
  entropy T*S    EENTRO =         0.08040752
  eigenvalues    EBANDS =     -2686.99931893
  atomic energy  EATOM  =     28657.04318630
  Solvation  Ediel_sol  =         0.00000000
  ---------------------------------------------------
  free energy    TOTEN  =      -188.98773083 eV

  energy without entropy =     -189.06813835  energy(sigma->0) =     -189.01453334


--------------------------------------------------------------------------------------------------------




----------------------------------------- Iteration    1(  23)  ---------------------------------------


    POTLOK:  cpu time    2.1597: real time    2.1688
    SETDIJ:  cpu time    0.0250: real time    0.0244
    EDDIAG:  cpu time    3.7134: real time    3.7258
  RMM-DIIS:  cpu time   17.0004: real time   17.0669
    ORTHCH:  cpu time    0.3130: real time    0.3155
       DOS:  cpu time    0.0010: real time    0.0011
    CHARGE:  cpu time    1.9657: real time    1.9730
    MIXING:  cpu time    0.0740: real time    0.0737
    --------------------------------------------
      LOOP:  cpu time   25.2542: real time   25.3525

 eigenvalue-minimisations  :   498
 total energy-change (2. order) : 0.2981133E-01  (-0.3245602E-02)
 number of electron     386.0000455 magnetization 
 augmentation part      127.6669316 magnetization 

 Broyden mixing:
  rms(total) = 0.90795E-01    rms(broyden)= 0.90290E-01
  rms(prec ) = 0.13476E+00
  weight for this iteration     100.00

 eigenvalues of (default mixing * dielectric matrix)
  average eigenvalue GAMMA=   0.6717
  2.3495  1.2706  1.2706  0.5597  0.5597  0.3471  0.2947  0.2616  0.1850  0.1458
  0.1444

 Free energy of the ion-electron system (eV)
  ---------------------------------------------------
  alpha Z        PSCENC =       362.96560263
  Ewald energy   TEWEN  =     69185.68759330
  -Hartree energ DENC   =    -96828.91222945
  -exchange      EXHF   =         0.00000000
  -V(xc)+E(xc)   XCENC  =       -84.45255069
  PAW double counting   =     23430.99133621   -22226.35177173
  entropy T*S    EENTRO =         0.07459411
  eigenvalues    EBANDS =     -2686.00368020
  atomic energy  EATOM  =     28657.04318630
  Solvation  Ediel_sol  =         0.00000000
  ---------------------------------------------------
  free energy    TOTEN  =      -188.95791950 eV

  energy without entropy =     -189.03251361  energy(sigma->0) =     -188.98278420


--------------------------------------------------------------------------------------------------------




----------------------------------------- Iteration    1(  24)  ---------------------------------------


    POTLOK:  cpu time    2.1667: real time    2.1725
    SETDIJ:  cpu time    0.0240: real time    0.0243
    EDDIAG:  cpu time    3.7254: real time    3.7393
  RMM-DIIS:  cpu time   16.4675: real time   16.5395
    ORTHCH:  cpu time    0.3120: real time    0.3136
       DOS:  cpu time    0.0010: real time    0.0013
    CHARGE:  cpu time    1.9857: real time    1.9901
    MIXING:  cpu time    0.0770: real time    0.0787
    --------------------------------------------
      LOOP:  cpu time   24.7622: real time   24.8629

 eigenvalue-minimisations  :   484
 total energy-change (2. order) : 0.1223620E-01  (-0.1750916E-02)
 number of electron     386.0000455 magnetization 
 augmentation part      127.6666248 magnetization 

 Broyden mixing:
  rms(total) = 0.55119E-01    rms(broyden)= 0.54882E-01
  rms(prec ) = 0.76306E-01
  weight for this iteration     100.00

 eigenvalues of (default mixing * dielectric matrix)
  average eigenvalue GAMMA=   0.6821
  2.4149  1.1872  1.1872  1.1813  0.4753  0.4510  0.3014  0.2706  0.2514  0.1838
  0.1463  0.1346

 Free energy of the ion-electron system (eV)
  ---------------------------------------------------
  alpha Z        PSCENC =       362.96560263
  Ewald energy   TEWEN  =     69185.68759330
  -Hartree energ DENC   =    -96831.58655524
  -exchange      EXHF   =         0.00000000
  -V(xc)+E(xc)   XCENC  =       -84.42636509
  PAW double counting   =     23433.63194613   -22229.04657379
  entropy T*S    EENTRO =         0.07027772
  eigenvalues    EBANDS =     -2683.28479526
  atomic energy  EATOM  =     28657.04318630
  Solvation  Ediel_sol  =         0.00000000
  ---------------------------------------------------
  free energy    TOTEN  =      -188.94568330 eV

  energy without entropy =     -189.01596102  energy(sigma->0) =     -188.96910921


--------------------------------------------------------------------------------------------------------




----------------------------------------- Iteration    1(  25)  ---------------------------------------


    POTLOK:  cpu time    2.1757: real time    2.1803
    SETDIJ:  cpu time    0.0240: real time    0.0244
    EDDIAG:  cpu time    3.6934: real time    3.7046
  RMM-DIIS:  cpu time   16.7565: real time   16.8507
    ORTHCH:  cpu time    0.3100: real time    0.3128
       DOS:  cpu time    0.0010: real time    0.0011
    CHARGE:  cpu time    1.9577: real time    1.9656
    MIXING:  cpu time    0.0820: real time    0.0813
    --------------------------------------------
      LOOP:  cpu time   25.0032: real time   25.1246

 eigenvalue-minimisations  :   493
 total energy-change (2. order) : 0.9446546E-02  (-0.8414719E-03)
 number of electron     386.0000455 magnetization 
 augmentation part      127.6389054 magnetization 

 Broyden mixing:
  rms(total) = 0.34972E-01    rms(broyden)= 0.34852E-01
  rms(prec ) = 0.48237E-01
  weight for this iteration     100.00

 eigenvalues of (default mixing * dielectric matrix)
  average eigenvalue GAMMA=   0.6807
  2.4319  1.6024  1.1278  1.1278  0.4900  0.4900  0.3157  0.3157  0.2601  0.2240
  0.1827  0.1465  0.1343

 Free energy of the ion-electron system (eV)
  ---------------------------------------------------
  alpha Z        PSCENC =       362.96560263
  Ewald energy   TEWEN  =     69185.68759330
  -Hartree energ DENC   =    -96837.32492633
  -exchange      EXHF   =         0.00000000
  -V(xc)+E(xc)   XCENC  =       -84.34934385
  PAW double counting   =     23440.43219403   -22235.79859936
  entropy T*S    EENTRO =         0.07180429
  eigenvalues    EBANDS =     -2677.66374777
  atomic energy  EATOM  =     28657.04318630
  Solvation  Ediel_sol  =         0.00000000
  ---------------------------------------------------
  free energy    TOTEN  =      -188.93623676 eV

  energy without entropy =     -189.00804105  energy(sigma->0) =     -188.96017152


--------------------------------------------------------------------------------------------------------




----------------------------------------- Iteration    1(  26)  ---------------------------------------


    POTLOK:  cpu time    2.1737: real time    2.1835
    SETDIJ:  cpu time    0.0240: real time    0.0243
    EDDIAG:  cpu time    3.7084: real time    3.7515
  RMM-DIIS:  cpu time   16.9574: real time   17.0782
    ORTHCH:  cpu time    0.3130: real time    0.3126
       DOS:  cpu time    0.0010: real time    0.0011
    CHARGE:  cpu time    1.9607: real time    1.9660
    MIXING:  cpu time    0.0880: real time    0.0874
    --------------------------------------------
      LOOP:  cpu time   25.2272: real time   25.4081

 eigenvalue-minimisations  :   500
 total energy-change (2. order) : 0.4222551E-02  (-0.3422483E-03)
 number of electron     386.0000455 magnetization 
 augmentation part      127.6241378 magnetization 

 Broyden mixing:
  rms(total) = 0.16720E-01    rms(broyden)= 0.16655E-01
  rms(prec ) = 0.23063E-01
  weight for this iteration     100.00

 eigenvalues of (default mixing * dielectric matrix)
  average eigenvalue GAMMA=   0.7016
  2.5417  1.8112  1.1363  1.1363  0.6933  0.5626  0.3950  0.3354  0.2772  0.2596
  0.2097  0.1828  0.1465  0.1342

 Free energy of the ion-electron system (eV)
  ---------------------------------------------------
  alpha Z        PSCENC =       362.96560263
  Ewald energy   TEWEN  =     69185.68759330
  -Hartree energ DENC   =    -96840.41703613
  -exchange      EXHF   =         0.00000000
  -V(xc)+E(xc)   XCENC  =       -84.31122712
  PAW double counting   =     23441.80454723   -22237.11842471
  entropy T*S    EENTRO =         0.06823885
  eigenvalues    EBANDS =     -2674.65449456
  atomic energy  EATOM  =     28657.04318630
  Solvation  Ediel_sol  =         0.00000000
  ---------------------------------------------------
  free energy    TOTEN  =      -188.93201421 eV

  energy without entropy =     -189.00025306  energy(sigma->0) =     -188.95476049


--------------------------------------------------------------------------------------------------------




----------------------------------------- Iteration    1(  27)  ---------------------------------------


    POTLOK:  cpu time    2.1577: real time    2.1864
    SETDIJ:  cpu time    0.0240: real time    0.0242
    EDDIAG:  cpu time    3.7304: real time    3.7521
  RMM-DIIS:  cpu time   17.6643: real time   17.7539
    ORTHCH:  cpu time    0.3110: real time    0.3117
       DOS:  cpu time    0.0010: real time    0.0012
    CHARGE:  cpu time    1.9307: real time    1.9699
    MIXING:  cpu time    0.0950: real time    0.1026
    --------------------------------------------
      LOOP:  cpu time   25.9161: real time   26.1056

 eigenvalue-minimisations  :   521
 total energy-change (2. order) : 0.2303926E-02  (-0.2005125E-03)
 number of electron     386.0000455 magnetization 
 augmentation part      127.6152284 magnetization 

 Broyden mixing:
  rms(total) = 0.13993E-01    rms(broyden)= 0.13957E-01
  rms(prec ) = 0.19325E-01
  weight for this iteration     100.00

 eigenvalues of (default mixing * dielectric matrix)
  average eigenvalue GAMMA=   0.7022
  2.5997  1.8868  1.1312  1.1312  0.9587  0.4795  0.4795  0.3469  0.3223  0.2713
  0.2548  0.2080  0.1826  0.1465  0.1342

 Free energy of the ion-electron system (eV)
  ---------------------------------------------------
  alpha Z        PSCENC =       362.96560263
  Ewald energy   TEWEN  =     69185.68759330
  -Hartree energ DENC   =    -96844.19134651
  -exchange      EXHF   =         0.00000000
  -V(xc)+E(xc)   XCENC  =       -84.26623780
  PAW double counting   =     23442.39136817   -22237.64883506
  entropy T*S    EENTRO =         0.06915468
[...]
    144      -5.1611      2.00000
    145      -5.1578      2.00000
    146      -5.0809      2.00000
    147      -5.0666      2.00000
    148      -5.0089      2.00000
    149      -4.9975      2.00000
    150      -4.9684      2.00000
    151      -4.9633      2.00000
    152      -4.9446      2.00000
    153      -4.9345      2.00000
    154      -4.9179      2.00000
    155      -4.8998      2.00001
    156      -4.8967      2.00001
    157      -4.8886      2.00001
    158      -4.8668      2.00002
    159      -4.8401      2.00004
    160      -4.8315      2.00005
    161      -4.8296      2.00005
    162      -4.8062      2.00010
    163      -4.7756      2.00024
    164      -4.7706      2.00027
    165      -4.7136      2.00118
    166      -4.6941      2.00186
    167      -4.6410      2.00578
    168      -4.6287      2.00733
    169      -4.6234      2.00810
    170      -4.6029      2.01173
    171      -4.5818      2.01667
    172      -4.5750      2.01857
    173      -4.5580      2.02393
    174      -4.5430      2.02940
    175      -4.5367      2.03192
    176      -4.5267      2.03613
    177      -4.5250      2.03685
    178      -4.4994      2.04845
    179      -4.4965      2.04982
    180      -4.4854      2.05486
    181      -4.4723      2.06051
    182      -4.4646      2.06349
    183      -4.4462      2.06899
    184      -4.4402      2.07009
    185      -4.4114      2.06811
    186      -4.3921      2.05732
    187      -4.3576      2.01001
    188      -4.3301      1.93879
    189      -4.3209      1.90698
    190      -4.2644      1.62031
    191      -4.2488      1.51486
    192      -4.2144      1.25019
    193      -4.1895      1.04248
    194      -4.1311      0.56608
    195      -4.1195      0.48155
    196      -4.1095      0.41264
    197      -4.1077      0.40051
    198      -4.0729      0.19960
    199      -4.0621      0.14968
    200      -4.0290      0.03194
    201      -3.9618     -0.06647
    202      -3.9479     -0.07033
    203      -3.9172     -0.06765
    204      -3.8625     -0.04523
    205      -3.8233     -0.02844
    206      -3.7649     -0.01151
    207      -3.7178     -0.00472
    208      -3.6969     -0.00305
    209      -3.5635     -0.00010
    210      -3.4529      0.00000
    211      -3.2727      0.00000
    212      -2.4201      0.00000
    213      -2.3742      0.00000
    214      -2.3420      0.00000
    215      -2.3294      0.00000
    216      -2.2842      0.00000
    217      -2.2657      0.00000
    218      -2.2113      0.00000
    219      -2.1958      0.00000
    220      -2.1748      0.00000
    221      -2.0426      0.00000
    222      -1.8704      0.00000
    223      -1.5519      0.00000
    224      -1.3790      0.00000
    225      -0.9496      0.00000
    226      -0.9297      0.00000
    227      -0.8876      0.00000
    228      -0.5703      0.00000
    229      -0.5585      0.00000
    230      -0.3510      0.00000
    231      -0.3284      0.00000
    232      -0.2283      0.00000


--------------------------------------------------------------------------------------------------------


 soft charge-density along one line, spin component           1
         0         1         2         3         4         5         6         7         8         9
 total charge-density along one line
 
 pseudopotential strength for first ion, spin component:           1
-11.624  -0.009  -0.038  -0.007  -0.017   0.288   0.001   0.005
 -0.009 -11.771  -0.002   0.018   0.003   0.001   0.306   0.000
 -0.038  -0.002 -11.703  -0.002  -0.053   0.005   0.000   0.298
 -0.007   0.018  -0.002 -11.654  -0.007   0.001  -0.002   0.000
 -0.017   0.003  -0.053  -0.007 -11.660   0.002   0.000   0.007
  0.288   0.001   0.005   0.001   0.002   0.165   0.000  -0.001
  0.001   0.306   0.000  -0.002   0.000   0.000   0.163   0.000
  0.005   0.000   0.298   0.000   0.007  -0.001   0.000   0.164
  0.001  -0.002   0.000   0.292   0.001   0.000   0.000   0.000
  0.002   0.000   0.007   0.001   0.292   0.000   0.000  -0.001
 -0.015   0.004   0.020   0.003  -0.028   0.002   0.000  -0.002
  0.001   0.000  -0.001   0.000   0.002   0.000   0.000   0.000
  0.014  -0.001  -0.003   0.000  -0.004  -0.002   0.000   0.001
  0.000   0.006  -0.002   0.014   0.000   0.000  -0.001   0.000
  0.007   0.000  -0.009  -0.002   0.015  -0.001   0.000   0.001
 -0.012   0.001   0.003   0.000   0.004   0.002   0.000   0.000
  0.000  -0.005   0.001  -0.011   0.000   0.000   0.001   0.000
 -0.005   0.000   0.008   0.001  -0.012   0.001   0.000  -0.001
 total augmentation occupancy for first ion, spin component:           1
  1.889  -0.019  -0.077  -0.011  -0.081  -0.047   0.012   0.052   0.008   0.050   0.017  -0.015   0.018  -0.006  -0.008   0.016
 -0.019   1.588   0.001   0.003  -0.002   0.012   0.177   0.002   0.003  -0.005  -0.013  -0.003   0.000   0.000  -0.005  -0.001
 -0.077   0.001   1.787   0.003  -0.058   0.048   0.001   0.021  -0.001   0.022  -0.050   0.017  -0.004  -0.002  -0.022  -0.004
 -0.011   0.003   0.003   1.798  -0.008   0.008   0.006  -0.001   0.006   0.000   0.014   0.008  -0.001  -0.049  -0.002   0.000
 -0.081  -0.002  -0.058  -0.008   1.733   0.049  -0.004   0.028   0.001   0.049   0.014  -0.018  -0.003  -0.011  -0.015  -0.005
 -0.047   0.012   0.048   0.008   0.049   0.200  -0.010  -0.024   0.006  -0.036  -0.053   0.000  -0.106  -0.003   0.000   0.004
  0.012   0.177   0.001   0.006  -0.004  -0.010   0.162   0.005   0.000  -0.003   0.030  -0.003   0.013  -0.025  -0.002   0.000
  0.052   0.002   0.021  -0.001   0.028  -0.024   0.005   0.187   0.000   0.005   0.100  -0.007   0.037   0.004   0.022  -0.001
  0.008   0.003  -0.001   0.006   0.001   0.006   0.000   0.000   0.245   0.002   0.002  -0.002  -0.006  -0.132   0.000   0.000
  0.050  -0.005   0.022   0.000   0.049  -0.036  -0.003   0.005   0.002   0.209  -0.114   0.008   0.079  -0.001  -0.065  -0.003
  0.017  -0.013  -0.050   0.014   0.014  -0.053   0.030   0.100   0.002  -0.114   1.187  -0.319  -0.047   0.007  -0.125   0.004
 -0.015  -0.003   0.017   0.008  -0.018   0.000  -0.003  -0.007  -0.002   0.008  -0.319   0.134   0.027  -0.003   0.074  -0.002
  0.018   0.000  -0.004  -0.001  -0.003  -0.106   0.013   0.037  -0.006   0.079  -0.047   0.027   0.150   0.005  -0.018  -0.006
 -0.006   0.000  -0.002  -0.049  -0.011  -0.003  -0.025   0.004  -0.132  -0.001   0.007  -0.003   0.005   0.131   0.000   0.000
 -0.008  -0.005  -0.022  -0.002  -0.015   0.000  -0.002   0.022   0.000  -0.065  -0.125   0.074  -0.018   0.000   0.081   0.000
  0.016  -0.001  -0.004   0.000  -0.005   0.004   0.000  -0.001   0.000  -0.003   0.004  -0.002  -0.006   0.000   0.000   0.000
  0.000   0.005  -0.001   0.019   0.000   0.000   0.002   0.000   0.006   0.000  -0.001   0.000   0.000  -0.006   0.000   0.000
  0.007   0.000  -0.009  -0.001   0.017   0.000   0.000   0.000   0.000   0.003   0.012  -0.005   0.000   0.000  -0.004   0.000


------------------------ aborting loop because EDIFF is reached ----------------------------------------


    CHARGE:  cpu time    1.9297: real time    1.9356
    FORLOC:  cpu time    0.3559: real time    0.3563
    FORNL :  cpu time    5.4432: real time    5.4915
    FORCOR:  cpu time    2.3506: real time    2.3557
    FORHAR:  cpu time    0.8499: real time    0.8527
    MIXING:  cpu time    0.0530: real time    0.0528
    OFIELD:  cpu time    0.0000: real time    0.0001

 VOLUME and BASIS-vectors are now :
 -----------------------------------------------------------------------------
  energy-cutoff  :      274.00
  volume of cell :     5832.00
      direct lattice vectors                 reciprocal lattice vectors
    18.000000000  0.000000000  0.000000000     0.055555556  0.000000000  0.000000000
     0.000000000 18.000000000  0.000000000     0.000000000  0.055555556  0.000000000
     0.000000000  0.000000000 18.000000000     0.000000000  0.000000000  0.055555556

  length of vectors
    18.000000000 18.000000000 18.000000000     0.055555556  0.055555556  0.055555556


 FORCES acting on ions
    electron-ion (+dipol)            ewald-force                    non-local-force                 convergence-correction
 -----------------------------------------------------------------------------------------------
   -.141E+04 -.445E+03 0.514E+02   0.141E+04 0.445E+03 -.514E+02   0.164E+01 0.414E+00 -.723E-01   0.808E-02 -.194E-01 0.742E-02
   -.445E+03 -.141E+04 0.514E+02   0.445E+03 0.141E+04 -.514E+02   0.414E+00 0.164E+01 -.723E-01   -.120E-01 0.894E-02 0.682E-02
   0.140E+04 -.508E+03 -.211E+02   -.140E+04 0.508E+03 0.212E+02   -.148E+01 0.874E+00 -.676E-01   0.252E-02 0.196E-01 -.935E-02
   0.516E+03 -.140E+04 -.263E+02   -.515E+03 0.139E+04 0.264E+02   -.700E+00 0.134E+01 -.118E+00   -.133E-01 -.260E-02 -.430E-02
   0.141E+04 0.466E+03 0.456E+02   -.141E+04 -.466E+03 -.455E+02   -.135E+01 -.477E+00 -.247E-01   -.106E-01 0.147E-01 -.299E-02
   0.466E+03 0.141E+04 0.456E+02   -.466E+03 -.141E+04 -.455E+02   -.477E+00 -.135E+01 -.249E-01   0.195E-01 -.113E-01 -.147E-02
   -.140E+04 0.516E+03 -.263E+02   0.139E+04 -.515E+03 0.264E+02   0.134E+01 -.700E+00 -.117E+00   -.693E-02 -.148E-01 -.249E-02
   -.508E+03 0.140E+04 -.211E+02   0.508E+03 -.140E+04 0.212E+02   0.874E+00 -.148E+01 -.677E-01   0.204E-01 0.762E-02 -.612E-02
   -.114E+04 -.139E+02 -.757E+03   0.114E+04 0.136E+02 0.757E+03   -.539E+00 0.247E+00 -.488E+00   0.992E-02 -.168E-01 -.117E-02
   0.114E+04 -.404E+01 -.767E+03   -.114E+04 0.421E+01 0.767E+03   0.610E+00 -.184E+00 -.105E+00   -.807E-02 0.178E-01 0.734E-03
   -.139E+02 -.114E+04 -.757E+03   0.136E+02 0.114E+04 0.757E+03   0.247E+00 -.539E+00 -.488E+00   -.743E-02 0.828E-02 -.279E-03
   -.405E+01 0.114E+04 -.767E+03   0.421E+01 -.114E+04 0.767E+03   -.184E+00 0.610E+00 -.105E+00   0.254E-01 -.974E-02 0.501E-03
   -.987E+03 -.987E+03 -.571E+03   0.986E+03 0.986E+03 0.570E+03   0.978E+00 0.978E+00 0.562E+00   0.340E-02 -.238E-02 0.809E-02
   0.943E+03 -.936E+03 -.736E+03   -.941E+03 0.934E+03 0.736E+03   -.146E+01 0.137E+01 -.269E-01   -.461E-02 0.987E-02 -.984E-02
   0.981E+03 0.981E+03 -.597E+03   -.979E+03 -.979E+03 0.597E+03   -.163E+01 -.163E+01 -.176E+00   -.562E-03 -.863E-02 0.842E-02
   -.936E+03 0.943E+03 -.736E+03   0.934E+03 -.941E+03 0.736E+03   0.137E+01 -.146E+01 -.267E-01   0.875E-02 -.267E-02 -.976E-02
   -.112E+04 0.175E+02 0.800E+03   0.112E+04 -.175E+02 -.801E+03   -.545E+00 -.192E-01 0.443E+00   0.500E-02 -.369E-01 0.726E-03
   0.113E+04 -.153E+02 0.805E+03   -.113E+04 0.152E+02 -.806E+03   0.537E+00 0.730E-01 0.352E+00   -.500E-03 0.273E-01 -.103E-01
   0.175E+02 -.112E+04 0.800E+03   -.174E+02 0.112E+04 -.801E+03   -.193E-01 -.545E+00 0.443E+00   -.293E-01 0.394E-02 0.387E-03
   -.153E+02 0.113E+04 0.805E+03   0.152E+02 -.113E+04 -.806E+03   0.730E-01 0.537E+00 0.352E+00   0.332E-01 -.941E-03 -.102E-01
   -.947E+03 -.947E+03 0.716E+03   0.946E+03 0.946E+03 -.716E+03   0.961E+00 0.961E+00 -.481E+00   0.314E-02 -.259E-02 0.175E-02
   0.960E+03 -.957E+03 0.663E+03   -.959E+03 0.956E+03 -.662E+03   -.127E+01 0.125E+01 -.104E+01   -.460E-02 0.236E-02 0.101E-03
   0.947E+03 0.947E+03 0.718E+03   -.946E+03 -.946E+03 -.717E+03   -.948E+00 -.948E+00 -.715E+00   0.726E-02 0.968E-03 -.138E-01
   -.957E+03 0.960E+03 0.663E+03   0.956E+03 -.959E+03 -.662E+03   0.125E+01 -.127E+01 -.104E+01   0.173E-02 -.109E-02 -.164E-03
   -.601E+03 -.601E+03 -.122E+04   0.601E+03 0.601E+03 0.122E+04   -.338E-01 -.338E-01 0.224E+01   0.733E-02 -.801E-03 0.217E-02
   0.472E+03 -.581E+03 -.124E+04   -.472E+03 0.582E+03 0.124E+04   0.904E-01 -.182E+01 0.180E+01   -.181E-03 0.107E-01 0.257E-02
   0.620E+03 0.620E+03 -.116E+04   -.621E+03 -.621E+03 0.116E+04   0.118E+01 0.118E+01 0.227E+01   0.452E-02 -.426E-02 0.798E-02
   -.581E+03 0.472E+03 -.124E+04   0.582E+03 -.472E+03 0.124E+04   -.182E+01 0.903E-01 0.180E+01   0.172E-01 -.741E-02 -.273E-02
   -.477E+03 -.477E+03 0.133E+04   0.477E+03 0.477E+03 -.133E+04   0.253E+00 0.253E+00 -.107E+01   -.890E-02 -.184E-01 -.648E-02
   0.499E+03 -.502E+03 0.131E+04   -.498E+03 0.502E+03 -.130E+04   -.708E+00 0.465E+00 -.176E+01   -.151E-01 0.426E-02 0.196E-02
   0.474E+03 0.474E+03 0.133E+04   -.474E+03 -.474E+03 -.133E+04   -.251E+00 -.251E+00 -.123E+01   0.134E-01 0.516E-02 -.797E-02
   -.502E+03 0.499E+03 0.131E+04   0.502E+03 -.498E+03 -.130E+04   0.465E+00 -.709E+00 -.176E+01   0.938E-02 -.189E-01 0.395E-02
   0.240E+01 0.241E+01 -.628E+03   -.238E+01 -.238E+01 0.627E+03   -.260E-01 -.258E-01 0.529E+00   0.133E-01 0.119E-02 -.150E-02
   0.502E+03 0.502E+03 0.226E+02   -.502E+03 -.502E+03 -.227E+02   -.679E-01 -.678E-01 0.120E+00   0.159E-01 0.625E-02 -.682E-02
   0.507E+03 -.503E+03 0.162E+02   -.507E+03 0.503E+03 -.162E+02   0.130E-01 0.696E-01 -.291E-01   -.138E-01 0.203E-01 -.103E-01
   0.347E+01 0.348E+01 0.703E+03   -.347E+01 -.348E+01 -.703E+03   0.600E-02 0.606E-02 -.187E+00   0.215E-02 -.823E-02 -.874E-02
   -.497E+03 -.497E+03 0.187E+02   0.497E+03 0.497E+03 -.187E+02   0.104E+00 0.104E+00 0.281E-01   -.138E-02 -.104E-01 0.455E-02
   -.503E+03 0.507E+03 0.162E+02   0.503E+03 -.507E+03 -.162E+02   0.697E-01 0.130E-01 -.291E-01   0.278E-01 -.195E-01 -.808E-02
   0.583E+02 0.583E+02 -.908E+03   -.555E+02 -.555E+02 0.941E+03   -.277E+01 -.277E+01 -.332E+02   0.536E-02 -.340E-03 0.526E-02
 -----------------------------------------------------------------------------------------------
   0.369E+01 0.386E+01 0.337E+02   -.377E-12 0.151E-11 0.227E-12   -.381E+01 -.381E+01 -.336E+02   0.127E+00 -.489E-01 -.714E-01
 
 
 POSITION                                       TOTAL-FORCE (eV/Angst)
 -----------------------------------------------------------------------------------
     13.07669     10.27092      8.91118        -0.001108     -0.002207     -0.000636
     10.27093     13.07669      8.91117        -0.002078     -0.001015     -0.000601
      5.02948     10.36829      9.05965         0.001358      0.001048      0.000178
      7.61648     12.97455      9.06851        -0.001705     -0.001578      0.000873
      4.98512      7.70418      8.94534         0.000994      0.001138     -0.001168
      7.70418      4.98512      8.94535         0.001370      0.001068     -0.001127
     12.97455      7.61647      9.06851        -0.001689     -0.001619      0.000905
     10.36829      5.02948      9.05966         0.000938      0.001265      0.000188
     11.92169      9.07268     11.03530        -0.000376     -0.000421      0.000515
      6.05743      8.92851     11.05209        -0.000047     -0.000124      0.000448
      9.07268     11.92169     11.03529        -0.000246     -0.000323      0.000502
      8.92851      6.05743     11.05209        -0.000085      0.000116      0.000241
     11.80826     11.80826     10.69268         0.000127      0.000121     -0.001276
      6.45442     11.55086     11.11744         0.000225     -0.001061      0.002150
      6.22419      6.22419     10.86303         0.000299      0.000258     -0.000261
     11.55085      6.45442     11.11745        -0.001271      0.000479      0.002298
     11.89881      8.94064      6.93030        -0.000563     -0.002134     -0.000389
      6.09723      9.06151      6.91671         0.000862      0.001734     -0.000804
      8.94064     11.89881      6.93030        -0.002081     -0.000417     -0.000432
      9.06152      6.09722      6.91672         0.001793      0.000954     -0.000835
     11.61586     11.61586      7.05508        -0.001418     -0.001461     -0.001239
      6.26049     11.74706      7.08163        -0.001220      0.000697     -0.000477
      6.38447      6.38447      7.04037         0.001695      0.001668     -0.002188
     11.74706      6.26048      7.08163         0.000587     -0.001031     -0.000647
     10.62277     10.62277     12.69772         0.001203      0.001083      0.000306
      7.91215     10.25950     12.87821         0.001722      0.000583      0.001916
      7.45411      7.45412     12.76403         0.000061     -0.000042      0.000488
     10.25950      7.91215     12.87821         0.000491      0.001662      0.001686
     10.28073     10.28072      5.21418        -0.002656     -0.002743     -0.001504
      7.58982     10.44004      5.15423        -0.001839      0.002117     -0.001472
      7.72776      7.72775      5.20964         0.003035      0.002929     -0.000466
     10.44005      7.58982      5.15423         0.002097     -0.001876     -0.001019
      8.98204      8.98204     10.86704        -0.000095     -0.000067      0.000632
      7.66076      7.66076      8.98537         0.000545      0.000534      0.000463
      7.66336     10.33040      9.00242        -0.000261      0.000219      0.000075
      8.99825      8.99825      7.09679        -0.000052     -0.000116      0.000025
     10.33451     10.33451      8.97770        -0.000478     -0.000430      0.000301
     10.33040      7.66336      9.00242         0.000346     -0.000294      0.000141
      8.60397      8.60398     13.98234        -0.000480     -0.000714      0.002207
 -----------------------------------------------------------------------------------
    total drift:                                0.005751      0.006067     -0.013013


--------------------------------------------------------------------------------------------------------



  FREE ENERGIE OF THE ION-ELECTRON SYSTEM (eV)
  ---------------------------------------------------
  free  energy   TOTEN  =      -188.94547450 eV

  energy  without entropy=     -189.01488240  energy(sigma->0) =     -188.96861047
 
 d Force = 0.7122503E-05[ 0.390E-05, 0.103E-04]  d Energy = 0.8331803E-04-0.762E-04
 d Force = 0.6561592E-01[ 0.656E-01, 0.656E-01]  d Ewald  = 0.6561592E-01-0.815E-09


--------------------------------------------------------------------------------------------------------


    POTLOK:  cpu time    2.2527: real time    2.2632


--------------------------------------------------------------------------------------------------------


 stress matrix after NEB project (eV)
      0.00000      0.00000      0.00000
      0.00000      0.00000      0.00000
      0.00000      0.00000      0.00000
  FORCES: max atom, RMS     0.004243    0.002091
  FORCE total and by dimension    0.013061    0.003035
  Stress total and by dimension    0.000000    0.000000
 Steepest descent step on ions:
 trial-energy change:   -0.000083  1 .order   -0.000007   -0.000010   -0.000004
  (g-gl).g = 0.103E-04      g.g   = 0.103E-04  gl.gl    = 0.000E+00
 g(Force)  = 0.103E-04   g(Stress)= 0.000E+00 ortho     = 0.000E+00
 gamma     =   0.00000
 trial     =   1.00000
 opt step  =   1.60477  (harmonic =   1.60477) maximal distance =0.00009491
 next E    =  -188.945399   (d E  =  -0.00001)


--------------------------------------------------------------------------------------------------------


  
 reached required accuracy - stopping structural energy minimisation
     LOOP+:  cpu time   50.4843: real time   50.7969
    4ORBIT:  cpu time    0.0000: real time    0.0000

 total amount of memory used by VASP on root node   105694. kBytes
========================================================================

   base      :      30000. kBytes
   nonlr-proj:       3131. kBytes
   fftplans  :      20116. kBytes
   grid      :      38220. kBytes
   one-center:         77. kBytes
   wavefun   :      14150. kBytes
 
  
  
 General timing and accounting informations for this job:
 ========================================================
  
                  Total CPU time used (sec):      942.684
                            User time (sec):      938.847
                          System time (sec):        3.836
                         Elapsed time (sec):      946.961
  
                   Maximum memory used (kb):      155216.
                   Average memory used (kb):           0.
  
                          Minor page faults:       254825
                          Major page faults:            9
                 Voluntary context switches:         1496
