<?xml version="1.0" encoding="ISO-8859-1"?>
<modeling>
 <generator>
  <i name="program" type="string">vasp </i>
  <i name="version" type="string">5.4.1  </i>
  <i name="subversion" type="string">24Jun15 (build Jan 06 2016 13:19:48) gamma-only                       parallel </i>
  <i name="platform" type="string">IFC91_ompi </i>
  <i name="date" type="string">2016 02 23 </i>
  <i name="time" type="string">15:19:07 </i>
 </generator>
 <incar>
  <i type="string" name="SYSTEM"> Pt cube particle</i>
  <i type="string" name="PREC">normal</i>
  <i type="int" name="IALGO">    48</i>
  <i type="int" name="IBRION">     2</i>
  <i name="EDIFF">      0.00010000</i>
  <i name="EDIFFG">     -0.00500000</i>
  <i type="int" name="NSW">   200</i>
  <i type="int" name="ISIF">     0</i>
  <i type="int" name="ISYM">     0</i>
  <i name="ENMAX">    274.00000000</i>
  <i name="POTIM">      0.10000000</i>
  <i type="string" name="LREAL">Auto</i>
  <i type="logical" name="LPLANE"> T  </i>
  <i type="logical" name="LWAVE"> F  </i>
  <i type="logical" name="LCHARG"> F  </i>
  <v type="int" name="KPOINT_BSE">    -1     0     0     0</v>
 </incar>
 <kpoints>
  <generation param="Monkhorst-Pack">
   <v type="int" name="divisions">       1        1        1 </v>
   <v name="usershift">      0.00000000       0.00000000       0.00000000 </v>
   <v name="genvec1">      1.00000000       0.00000000       0.00000000 </v>
   <v name="genvec2">      0.00000000       1.00000000       0.00000000 </v>
   <v name="genvec3">      0.00000000       0.00000000       1.00000000 </v>
   <v name="shift">      0.00000000       0.00000000       0.00000000 </v>
  </generation>
  <varray name="kpointlist" >
   <v>       0.00000000       0.00000000       0.00000000 </v>
  </varray>
  <varray name="weights" >
   <v>       1.00000000 </v>
  </varray>
 </kpoints>
 <parameters>
  <separator name="general" >
   <i type="string" name="SYSTEM">Pt cube particle</i>
   <i type="logical" name="LCOMPAT"> F  </i>
  </separator>
  <separator name="electronic" >
   <i type="string" name="PREC">normal</i>
   <i name="ENMAX">    274.00000000</i>
   <i name="ENAUG">    416.23000000</i>
   <i name="EDIFF">      0.00010000</i>
   <i type="int" name="IALGO">    48</i>
   <i type="int" name="IWAVPR">    11</i>
   <i type="int" name="NBANDS">   232</i>
   <i name="NELECT">    386.00000000</i>
   <i type="int" name="TURBO">     0</i>
   <i type="int" name="IRESTART">     0</i>
   <i type="int" name="NREBOOT">     0</i>
   <i type="int" name="NMIN">     0</i>
   <i name="EREF">      0.00000000</i>
   <separator name="electronic smearing" >
    <i type="int" name="ISMEAR">     1</i>
    <i name="SIGMA">      0.20000000</i>
    <i name="KSPACING">      0.50000000</i>
    <i type="logical" name="KGAMMA"> T  </i>
   </separator>
   <separator name="electronic projectors" >
    <i type="logical" name="LREAL"> T  </i>
    <v name="ROPT">     -0.00050000     -0.00050000     -0.00050000</v>
    <i type="int" name="LMAXPAW">  -100</i>
    <i type="int" name="LMAXMIX">     2</i>
    <i type="logical" name="NLSPLINE"> F  </i>
   </separator>
   <separator name="electronic startup" >
    <i type="int" name="ISTART">     0</i>
    <i type="int" name="ICHARG">     2</i>
    <i type="int" name="INIWAV">     1</i>
   </separator>
   <separator name="electronic spin" >
    <i type="int" name="ISPIN">     1</i>
    <i type="logical" name="LNONCOLLINEAR"> F  </i>
    <v name="MAGMOM">      1.00000000      1.00000000      1.00000000      1.00000000      1.00000000      1.00000000      1.00000000      1.00000000      1.00000000      1.00000000      1.00000000      1.00000000      1.00000000      1.00000000      1.00000000      1.00000000      1.00000000      1.00000000      1.00000000      1.00000000
      1.00000000      1.00000000      1.00000000      1.00000000      1.00000000      1.00000000      1.00000000      1.00000000      1.00000000      1.00000000      1.00000000      1.00000000      1.00000000      1.00000000      1.00000000      1.00000000      1.00000000      1.00000000      1.00000000</v>
    <i name="NUPDOWN">     -1.00000000</i>
    <i type="logical" name="LSORBIT"> F  </i>
    <v name="SAXIS">      0.00000000      0.00000000      1.00000000</v>
    <i type="logical" name="LSPIRAL"> F  </i>
    <v name="QSPIRAL">      0.00000000      0.00000000      0.00000000</v>
    <i type="logical" name="LZEROZ"> F  </i>
   </separator>
   <separator name="electronic exchange-correlation" >
    <i type="logical" name="LASPH"> F  </i>
    <i type="logical" name="LMETAGGA"> F  </i>
   </separator>
   <separator name="electronic convergence" >
    <i type="int" name="NELM">    60</i>
    <i type="int" name="NELMDL">     0</i>
    <i type="int" name="NELMIN">     2</i>
    <i name="ENINI">    274.00000000</i>
    <separator name="electronic convergence detail" >
     <i type="logical" name="LDIAG"> T  </i>
     <i type="logical" name="LSUBROT"> F  </i>
     <i name="WEIMIN">      0.00100000</i>
     <i name="EBREAK">      0.00000011</i>
     <i name="DEPER">      0.30000000</i>
     <i type="int" name="NRMM">     4</i>
     <i name="TIME">      0.40000000</i>
    </separator>
   </separator>
   <separator name="electronic mixer" >
    <i name="AMIX">      0.40000000</i>
    <i name="BMIX">      1.00000000</i>
    <i name="AMIN">      0.10000000</i>
    <i name="AMIX_MAG">      1.60000000</i>
    <i name="BMIX_MAG">      1.00000000</i>
    <separator name="electronic mixer details" >
     <i type="int" name="IMIX">     4</i>
     <i type="logical" name="MIXFIRST"> F  </i>
     <i type="int" name="MAXMIX">   -45</i>
     <i name="WC">    100.00000000</i>
     <i type="int" name="INIMIX">     1</i>
     <i type="int" name="MIXPRE">     1</i>
     <i type="int" name="MREMOVE">     5</i>
    </separator>
   </separator>
   <separator name="electronic dipolcorrection" >
    <i type="logical" name="LDIPOL"> F  </i>
    <i type="logical" name="LMONO"> F  </i>
    <i type="int" name="IDIPOL">     0</i>
    <i name="EPSILON">      1.00000000</i>
    <v name="DIPOL">   -100.00000000   -100.00000000   -100.00000000</v>
    <i name="EFIELD">      0.00000000</i>
   </separator>
  </separator>
  <separator name="grids" >
   <i type="int" name="NGX">    80</i>
   <i type="int" name="NGY">    80</i>
   <i type="int" name="NGZ">    80</i>
   <i type="int" name="NGXF">   160</i>
   <i type="int" name="NGYF">   160</i>
   <i type="int" name="NGZF">   160</i>
   <i type="logical" name="ADDGRID"> F  </i>
  </separator>
  <separator name="ionic" >
   <i type="int" name="NSW">   200</i>
   <i type="int" name="IBRION">     2</i>
   <i type="int" name="ISIF">     0</i>
   <i name="PSTRESS">      0.00000000</i>
   <i name="EDIFFG">     -0.00500000</i>
   <i type="int" name="NFREE">     1</i>
   <i name="POTIM">      0.10000000</i>
   <i name="SMASS">     -3.00000000</i>
   <i name="SCALEE">      1.00000000</i>
  </separator>
  <separator name="ionic md" >
   <i name="TEBEG">      0.00010000</i>
   <i name="TEEND">      0.00010000</i>
   <i type="int" name="NBLOCK">     1</i>
   <i type="int" name="KBLOCK">   200</i>
   <i type="int" name="NPACO">   256</i>
   <i name="APACO">     16.00000000</i>
  </separator>
  <separator name="symmetry" >
   <i type="int" name="ISYM">     0</i>
   <i name="SYMPREC">      0.00001000</i>
  </separator>
  <separator name="dos" >
   <i type="logical" name="LORBIT"> F  </i>
   <v name="RWIGS">     -1.00000000     -1.00000000     -1.00000000</v>
   <i type="int" name="NEDOS">   301</i>
   <i name="EMIN">     10.00000000</i>
   <i name="EMAX">    -10.00000000</i>
   <i name="EFERMI">      0.00000000</i>
  </separator>
  <separator name="writing" >
   <i type="int" name="NWRITE">     2</i>
   <i type="logical" name="LWAVE"> F  </i>
   <i type="logical" name="LCHARG"> F  </i>
   <i type="logical" name="LPARD"> F  </i>
   <i type="logical" name="LVTOT"> F  </i>
   <i type="logical" name="LVHAR"> F  </i>
   <i type="logical" name="LELF"> F  </i>
   <i type="logical" name="LOPTICS"> F  </i>
   <v name="STM">      0.00000000      0.00000000      0.00000000      0.00000000      0.00000000      0.00000000      0.00000000</v>
  </separator>
  <separator name="performance" >
   <i type="int" name="NPAR">     2</i>
   <i type="int" name="NSIM">     4</i>
   <i type="int" name="NBLK">    -1</i>
   <i type="logical" name="LPLANE"> T  </i>
   <i type="logical" name="LSCALAPACK"> T  </i>
   <i type="logical" name="LSCAAWARE"> F  </i>
   <i type="logical" name="LSCALU"> F  </i>
   <i type="logical" name="LASYNC"> F  </i>
   <i type="logical" name="LORBITALREAL"> F  </i>
  </separator>
  <separator name="miscellaneous" >
   <i type="int" name="IDIOT">     3</i>
   <i type="logical" name="LMUSIC"> F  </i>
   <v name="POMASS">    195.08000000    106.42000000     16.00000000</v>
   <v name="DARWINR">      0.00000000      0.00000000      0.00000000</v>
   <v name="DARWINV">      1.00000000      1.00000000      1.00000000</v>
   <i type="logical" name="LCORR"> T  </i>
  </separator>
  <i type="logical" name="GGA_COMPAT"> T  </i>
  <i type="logical" name="LBERRY"> F  </i>
  <i type="int" name="ICORELEVEL">     0</i>
  <i type="logical" name="LDAU"> F  </i>
  <i type="int" name="I_CONSTRAINED_M">     0</i>
  <separator name="electronic exchange-correlation" >
   <i type="string" name="GGA">--</i>
   <i type="int" name="VOSKOWN">     0</i>
   <i type="logical" name="LHFCALC"> F  </i>
   <i type="string" name="PRECFOCK"></i>
   <i type="logical" name="LSYMGRAD"> F  </i>
   <i type="logical" name="LHFONE"> F  </i>
   <i type="logical" name="LRHFCALC"> F  </i>
   <i type="logical" name="LTHOMAS"> F  </i>
   <i type="logical" name="LMODELHF"> F  </i>
   <i name="ENCUT4O">     -1.00000000</i>
   <i type="int" name="EXXOEP">     0</i>
   <i type="int" name="FOURORBIT">     0</i>
   <i name="AEXX">      0.00000000</i>
   <i name="HFALPHA">      0.00000000</i>
   <i name="MCALPHA">      0.00000000</i>
   <i name="ALDAX">      1.00000000</i>
   <i name="AGGAX">      1.00000000</i>
   <i name="ALDAC">      1.00000000</i>
   <i name="AGGAC">      1.00000000</i>
   <i type="int" name="NKREDX">     1</i>
   <i type="int" name="NKREDY">     1</i>
   <i type="int" name="NKREDZ">     1</i>
   <i type="logical" name="SHIFTRED"> F  </i>
   <i type="logical" name="ODDONLY"> F  </i>
   <i type="logical" name="EVENONLY"> F  </i>
   <i type="int" name="LMAXFOCK">     0</i>
   <i type="int" name="NMAXFOCKAE">     0</i>
   <i type="logical" name="LFOCKAEDFT"> F  </i>
   <i name="HFSCREEN">      0.00000000</i>
   <i name="HFSCREENC">      0.00000000</i>
   <i type="int" name="NBANDSGWLOW">     0</i>
  </separator>
  <separator name="vdW DFT" >
   <i type="logical" name="LUSE_VDW"> F  </i>
   <i name="Zab_VDW">     -0.84910000</i>
   <i name="PARAM1">      0.12340000</i>
   <i name="PARAM2">      1.00000000</i>
   <i name="PARAM3">      0.00000000</i>
  </separator>
  <separator name="model GW" >
   <i type="int" name="MODEL_GW">     0</i>
   <i name="MODEL_EPS0">     89.72307692</i>
   <i name="MODEL_ALPHA">      1.00000000</i>
  </separator>
  <separator name="linear response parameters" >
   <i type="logical" name="LEPSILON"> F  </i>
   <i type="logical" name="LRPA"> F  </i>
   <i type="logical" name="LNABLA"> F  </i>
   <i type="logical" name="LVEL"> F  </i>
   <i type="int" name="KINTER">     0</i>
   <i name="CSHIFT">      0.10000000</i>
   <i name="OMEGAMAX">     -1.00000000</i>
   <i name="DEG_THRESHOLD">      0.00200000</i>
  </separator>
  <separator name="orbital magnetization" >
   <i type="logical" name="NUCIND"> F  </i>
   <v name="MAGPOS">      0.00000000      0.00000000      0.00000000</v>
   <i type="logical" name="LNICSALL"> T  </i>
   <i type="logical" name="ORBITALMAG"> F  </i>
   <i type="logical" name="LMAGBLOCH"> F  </i>
   <i type="logical" name="LCHIMAG"> F  </i>
   <i type="logical" name="LGAUGE"> T  </i>
   <i type="int" name="MAGATOM">     0</i>
   <v name="MAGDIPOL">      0.00000000      0.00000000      0.00000000</v>
   <v name="AVECCONST">      0.00000000      0.00000000      0.00000000</v>
  </separator>
  <separator name="response functions" >
   <i type="logical" name="LADDER"> F  </i>
   <i type="logical" name="LFXC"> F  </i>
   <i type="logical" name="LHARTREE"> T  </i>
   <i type="int" name="IBSE">     0</i>
   <v type="int" name="KPOINT">    -1     0     0     0</v>
   <i type="logical" name="LTCTE"> F  </i>
   <i type="logical" name="LTETE"> F  </i>
   <i type="logical" name="LTRIPLET"> F  </i>
   <i type="logical" name="LFXCEPS"> F  </i>
   <i type="logical" name="LFXHEG"> F  </i>
   <i type="int" name="NATURALO">     0</i>
   <i type="logical" name="L2ORDER"> F  </i>
   <i type="logical" name="LUSEW"> F  </i>
   <i name="ENCUTGW">     -2.00000000</i>
   <i name="ENCUTGWSOFT">     -2.00000000</i>
   <i name="ENCUTLF">     -1.00000000</i>
   <i type="int" name="LMAXMP2">    -1</i>
   <i name="SCISSOR">      0.00000000</i>
   <i type="int" name="NOMEGA">     0</i>
   <i type="int" name="NOMEGAR">     0</i>
   <i type="int" name="NBANDSGW">    -1</i>
   <i type="int" name="NBANDSO">    -1</i>
   <i type="int" name="NBANDSV">    -1</i>
   <i type="int" name="NELM">     1</i>
   <i type="int" name="NELMHF">     1</i>
   <i type="int" name="DIM">     3</i>
   <i type="int" name="ANTIRES">     0</i>
   <i name="OMEGAMAX">    -30.00000000</i>
   <i name="OMEGAMIN">    -30.00000000</i>
   <i name="OMEGATL">   -200.00000000</i>
   <i type="int" name="OMEGAGRID">     0</i>
   <i name="CSHIFT">     -0.10000000</i>
   <i type="logical" name="SELFENERGY"> F  </i>
   <i type="logical" name="LSPECTRAL"> F  </i>
   <i type="logical" name="LSPECTRALGW"> F  </i>
   <i type="logical" name="LSINGLES"> F  </i>
   <i type="logical" name="LFERMIGW"> F  </i>
   <i type="logical" name="ODDONLYGW"> F  </i>
   <i type="logical" name="EVENONLYGW"> F  </i>
   <i type="int" name="NKREDLFX">     1</i>
   <i type="int" name="NKREDLFY">     1</i>
   <i type="int" name="NKREDLFZ">     1</i>
   <i type="int" name="MAXMEM">  1800</i>
   <i type="int" name="TELESCOPE">     0</i>
   <i type="int" name="TAUPAR">     1</i>
   <i type="int" name="OMEGAPAR">    -1</i>
   <i name="LAMBDA">      1.00000000</i>
  </separator>
  <separator name="External order field" >
   <i name="OFIELD_KAPPA">      0.00000000</i>
   <v name="OFIELD_K">      0.00000000      0.00000000      0.00000000</v>
   <i name="OFIELD_Q6_NEAR">      0.00000000</i>
   <i name="OFIELD_Q6_FAR">      0.00000000</i>
   <i name="OFIELD_A">      0.00000000</i>
  </separator>
  <separator name="solvation model" >
   <i type="logical" name="LSOL"> F  </i>
  </separator>
 </parameters>
 <atominfo>
  <atoms>      39 </atoms>
  <types>       3 </types>
  <array name="atoms" >
   <dimension dim="1">ion</dimension>
   <field type="string">element</field>
   <field type="int">atomtype</field>
   <set>
    <rc><c>Pt</c><c>   1</c></rc>
    <rc><c>Pt</c><c>   1</c></rc>
    <rc><c>Pt</c><c>   1</c></rc>
    <rc><c>Pt</c><c>   1</c></rc>
    <rc><c>Pt</c><c>   1</c></rc>
    <rc><c>Pt</c><c>   1</c></rc>
    <rc><c>Pt</c><c>   1</c></rc>
    <rc><c>Pt</c><c>   1</c></rc>
    <rc><c>Pt</c><c>   1</c></rc>
    <rc><c>Pt</c><c>   1</c></rc>
    <rc><c>Pt</c><c>   1</c></rc>
    <rc><c>Pt</c><c>   1</c></rc>
    <rc><c>Pt</c><c>   1</c></rc>
    <rc><c>Pt</c><c>   1</c></rc>
    <rc><c>Pt</c><c>   1</c></rc>
    <rc><c>Pt</c><c>   1</c></rc>
    <rc><c>Pt</c><c>   1</c></rc>
    <rc><c>Pt</c><c>   1</c></rc>
    <rc><c>Pt</c><c>   1</c></rc>
    <rc><c>Pt</c><c>   1</c></rc>
    <rc><c>Pt</c><c>   1</c></rc>
    <rc><c>Pt</c><c>   1</c></rc>
    <rc><c>Pt</c><c>   1</c></rc>
    <rc><c>Pt</c><c>   1</c></rc>
    <rc><c>Pt</c><c>   1</c></rc>
    <rc><c>Pt</c><c>   1</c></rc>
    <rc><c>Pt</c><c>   1</c></rc>
    <rc><c>Pt</c><c>   1</c></rc>
    <rc><c>Pt</c><c>   1</c></rc>
    <rc><c>Pt</c><c>   1</c></rc>
    <rc><c>Pt</c><c>   1</c></rc>
    <rc><c>Pt</c><c>   1</c></rc>
    <rc><c>Pd</c><c>   2</c></rc>
    <rc><c>Pd</c><c>   2</c></rc>
    <rc><c>Pd</c><c>   2</c></rc>
    <rc><c>Pd</c><c>   2</c></rc>
    <rc><c>Pd</c><c>   2</c></rc>
    <rc><c>Pd</c><c>   2</c></rc>
    <rc><c>O </c><c>   3</c></rc>
   </set>
  </array>
  <array name="atomtypes" >
   <dimension dim="1">type</dimension>
   <field type="int">atomspertype</field>
   <field type="string">element</field>
   <field>mass</field>
   <field>valence</field>
   <field type="string">pseudopotential</field>
   <set>
    <rc><c>  32</c><c>Pt</c><c>    195.08000000</c><c>     10.00000000</c><c>  PAW Pt                                </c></rc>
    <rc><c>   6</c><c>Pd</c><c>    106.42000000</c><c>     10.00000000</c><c>  PAW Pd                                </c></rc>
    <rc><c>   1</c><c>O </c><c>     16.00000000</c><c>      6.00000000</c><c>  PAW O_s                               </c></rc>
   </set>
  </array>
 </atominfo>
 <structure name="initialpos" >
  <crystal>
   <varray name="basis" >
    <v>      18.00000000       0.00000000       0.00000000 </v>
    <v>       0.00000000      18.00000000       0.00000000 </v>
    <v>       0.00000000       0.00000000      18.00000000 </v>
   </varray>
   <i name="volume">   5832.00000000 </i>
   <varray name="rec_basis" >
    <v>       0.05555556       0.00000000       0.00000000 </v>
    <v>       0.00000000       0.05555556       0.00000000 </v>
    <v>       0.00000000       0.00000000       0.05555556 </v>
   </varray>
  </crystal>
  <varray name="positions" >
   <v>       0.72648437       0.57060922       0.49506623 </v>
   <v>       0.57060956       0.72648438       0.49506605 </v>
   <v>       0.27941432       0.57601525       0.50331374 </v>
   <v>       0.42313994       0.72081014       0.50380470 </v>
   <v>       0.27694893       0.42800874       0.49696515 </v>
   <v>       0.42800874       0.27694901       0.49696529 </v>
   <v>       0.72080995       0.42313965       0.50380505 </v>
   <v>       0.57601516       0.27941435       0.50331404 </v>
   <v>       0.66231633       0.50403826       0.61307121 </v>
   <v>       0.33652407       0.49602875       0.61400431 </v>
   <v>       0.50403831       0.66231645       0.61307097 </v>
   <v>       0.49602855       0.33652421       0.61400449 </v>
   <v>       0.65601429       0.65601423       0.59403966 </v>
   <v>       0.35857903       0.64171542       0.61763218 </v>
   <v>       0.34578792       0.34578808       0.60350228 </v>
   <v>       0.64171522       0.35857897       0.61763267 </v>
   <v>       0.66104536       0.49670432       0.38501745 </v>
   <v>       0.33873405       0.50341549       0.38426328 </v>
   <v>       0.49670459       0.66104529       0.38501732 </v>
   <v>       0.50341552       0.33873394       0.38426339 </v>
   <v>       0.64532816       0.64532787       0.39195030 </v>
   <v>       0.34780704       0.65261278       0.39342497 </v>
   <v>       0.35468988       0.35468982       0.39113336 </v>
   <v>       0.65261278       0.34780678       0.39342512 </v>
   <v>       0.59015220       0.59015241       0.70542871 </v>
   <v>       0.43956129       0.56997165       0.71545317 </v>
   <v>       0.41411740       0.41411767       0.70911205 </v>
   <v>       0.56997134       0.43956149       0.71545339 </v>
   <v>       0.57115446       0.57115425       0.28967771 </v>
   <v>       0.42165920       0.57999970       0.28634908 </v>
   <v>       0.42931653       0.42931640       0.28942505 </v>
   <v>       0.57999982       0.42165896       0.28634917 </v>
   <v>       0.49900258       0.49900272       0.60372206 </v>
   <v>       0.42559653       0.42559658       0.49918789 </v>
   <v>       0.42574256       0.57391110       0.50013323 </v>
   <v>       0.49990285       0.49990276       0.39426576 </v>
   <v>       0.57414137       0.57414129       0.49876042 </v>
   <v>       0.57391103       0.42574251       0.50013338 </v>
   <v>       0.47799877       0.47799912       0.77679574 </v>
  </varray>
  <varray name="selective"  type="logical" >
   <v type="logical" >  T  T  T </v>
   <v type="logical" >  T  T  T </v>
   <v type="logical" >  T  T  T </v>
   <v type="logical" >  T  T  T </v>
   <v type="logical" >  T  T  T </v>
   <v type="logical" >  T  T  T </v>
   <v type="logical" >  T  T  T </v>
   <v type="logical" >  T  T  T </v>
   <v type="logical" >  T  T  T </v>
   <v type="logical" >  T  T  T </v>
   <v type="logical" >  T  T  T </v>
   <v type="logical" >  T  T  T </v>
   <v type="logical" >  T  T  T </v>
   <v type="logical" >  T  T  T </v>
   <v type="logical" >  T  T  T </v>
   <v type="logical" >  T  T  T </v>
   <v type="logical" >  T  T  T </v>
   <v type="logical" >  T  T  T </v>
   <v type="logical" >  T  T  T </v>
   <v type="logical" >  T  T  T </v>
   <v type="logical" >  T  T  T </v>
   <v type="logical" >  T  T  T </v>
   <v type="logical" >  T  T  T </v>
   <v type="logical" >  T  T  T </v>
   <v type="logical" >  T  T  T </v>
   <v type="logical" >  T  T  T </v>
   <v type="logical" >  T  T  T </v>
   <v type="logical" >  T  T  T </v>
   <v type="logical" >  T  T  T </v>
   <v type="logical" >  T  T  T </v>
   <v type="logical" >  T  T  T </v>
   <v type="logical" >  T  T  T </v>
   <v type="logical" >  T  T  T </v>
   <v type="logical" >  T  T  T </v>
   <v type="logical" >  T  T  T </v>
   <v type="logical" >  T  T  T </v>
   <v type="logical" >  T  T  T </v>
   <v type="logical" >  T  T  T </v>
   <v type="logical" >  T  T  T </v>
  </varray>
  <nose>
   <v>      -3.00000000       0.00000000       0.00010000       0.00010000 </v>
  </nose>
 </structure>
 <calculation>
  <scstep>
   <time name="diag">    3.79    3.79</time>
   <time name="diis">    8.59    8.60</time>
   <time name="orth">    0.31    0.31</time>
   <time name="total">   14.96   15.00</time>
   <energy>
    <i name="alphaZ">    362.96560263 </i>
    <i name="ewald">  69185.68759330 </i>
    <i name="hartreedc"> -96964.76345161 </i>
    <i name="XCdc">    -75.08360720 </i>
    <i name="pawpsdc">  22718.21794807 </i>
    <i name="pawaedc"> -21438.53612902 </i>
    <i name="eentropy">     -0.04985155 </i>
    <i name="bandstr">   2405.72722252 </i>
    <i name="atom">  28657.04318630 </i>
    <i name="e_fr_energy">   4851.20851343 </i>
    <i name="e_wo_entrp">   4851.25836498 </i>
    <i name="e_0_energy">   4851.22513062 </i>
   </energy>
  </scstep>
  <scstep>
   <time name="diag">    3.77    3.77</time>
   <time name="diis">    8.55    8.58</time>
   <time name="orth">    0.31    0.31</time>
   <time name="total">   12.63   12.67</time>
   <energy>
    <i name="e_fr_energy">   2741.24382374 </i>
    <i name="e_wo_entrp">   2741.21452041 </i>
    <i name="e_0_energy">   2741.23405596 </i>
   </energy>
  </scstep>
  <scstep>
   <time name="diag">    3.78    3.78</time>
   <time name="diis">    8.63    8.65</time>
   <time name="orth">    0.32    0.32</time>
   <time name="total">   12.73   12.75</time>
   <energy>
    <i name="e_fr_energy">   1742.85833420 </i>
    <i name="e_wo_entrp">   1742.87355444 </i>
    <i name="e_0_energy">   1742.86340762 </i>
   </energy>
  </scstep>
  <scstep>
   <time name="diag">    3.82    3.83</time>
   <time name="diis">    8.56    8.57</time>
   <time name="orth">    0.31    0.31</time>
   <time name="total">   12.70   12.72</time>
   <energy>
    <i name="e_fr_energy">    968.68936111 </i>
    <i name="e_wo_entrp">    968.73282995 </i>
    <i name="e_0_energy">    968.70385072 </i>
   </energy>
  </scstep>
  <scstep>
   <time name="diag">    3.76    3.80</time>
   <time name="diis">    8.61    8.62</time>
   <time name="orth">    0.31    0.31</time>
   <time name="total">   12.69   12.74</time>
   <energy>
    <i name="e_fr_energy">    510.14302039 </i>
    <i name="e_wo_entrp">    510.13164179 </i>
    <i name="e_0_energy">    510.13922752 </i>
   </energy>
  </scstep>
  <scstep>
   <time name="diag">    3.79    3.79</time>
   <time name="diis">    8.54    8.57</time>
   <time name="orth">    0.31    0.31</time>
   <time name="total">   12.64   12.68</time>
   <energy>
    <i name="e_fr_energy">    205.08969418 </i>
    <i name="e_wo_entrp">    205.04814347 </i>
    <i name="e_0_energy">    205.07584395 </i>
   </energy>
  </scstep>
  <scstep>
   <time name="diag">    3.81    3.81</time>
   <time name="diis">    8.62    8.63</time>
   <time name="orth">    0.31    0.31</time>
   <time name="total">   12.75   12.76</time>
   <energy>
    <i name="e_fr_energy">     47.81004567 </i>
    <i name="e_wo_entrp">     47.75717397 </i>
    <i name="e_0_energy">     47.79242177 </i>
   </energy>
  </scstep>
  <scstep>
   <time name="diag">    3.80    3.80</time>
   <time name="diis">    8.63    8.64</time>
   <time name="orth">    0.31    0.31</time>
   <time name="total">   12.74   12.76</time>
   <energy>
    <i name="e_fr_energy">    -58.90734265 </i>
    <i name="e_wo_entrp">    -58.84391643 </i>
    <i name="e_0_energy">    -58.88620057 </i>
   </energy>
  </scstep>
  <scstep>
   <time name="diag">    3.80    3.81</time>
   <time name="diis">   22.01   22.08</time>
   <time name="orth">    0.31    0.31</time>
   <time name="total">   26.13   26.20</time>
   <energy>
    <i name="e_fr_energy">   -151.10063363 </i>
    <i name="e_wo_entrp">   -151.12423670 </i>
    <i name="e_0_energy">   -151.10850132 </i>
   </energy>
  </scstep>
  <scstep>
   <time name="diag">    3.76    3.76</time>
   <time name="diis">   24.48   24.52</time>
   <time name="orth">    0.31    0.31</time>
   <time name="total">   28.56   28.60</time>
   <energy>
    <i name="e_fr_energy">   -184.55611572 </i>
    <i name="e_wo_entrp">   -184.44936426 </i>
    <i name="e_0_energy">   -184.52053190 </i>
   </energy>
  </scstep>
  <scstep>
   <time name="diag">    3.82    3.83</time>
   <time name="diis">   25.00   25.05</time>
   <time name="orth">    0.31    0.32</time>
   <time name="total">   29.14   29.20</time>
   <energy>
    <i name="e_fr_energy">   -195.21776828 </i>
    <i name="e_wo_entrp">   -195.27501028 </i>
    <i name="e_0_energy">   -195.23684894 </i>
   </energy>
  </scstep>
  <scstep>
   <time name="diag">    3.76    3.77</time>
   <time name="diis">   25.11   25.18</time>
   <time name="orth">    0.32    0.32</time>
   <time name="total">   31.19   31.27</time>
   <energy>
    <i name="e_fr_energy">   -199.36574659 </i>
    <i name="e_wo_entrp">   -199.35408249 </i>
    <i name="e_0_energy">   -199.36185856 </i>
   </energy>
  </scstep>
  <scstep>
   <time name="diag">    3.75    3.75</time>
   <time name="diis">   17.45   17.58</time>
   <time name="orth">    0.31    0.31</time>
   <time name="total">   25.66   25.81</time>
   <energy>
    <i name="e_fr_energy">   -198.30416469 </i>
    <i name="e_wo_entrp">   -198.29981572 </i>
    <i name="e_0_energy">   -198.30271503 </i>
   </energy>
  </scstep>
  <scstep>
   <time name="diag">    3.75    3.76</time>
   <time name="diis">   17.54   17.60</time>
   <time name="orth">    0.31    0.31</time>
   <time name="total">   25.71   25.83</time>
   <energy>
    <i name="e_fr_energy">   -190.83870170 </i>
    <i name="e_wo_entrp">   -190.90915154 </i>
    <i name="e_0_energy">   -190.86218498 </i>
   </energy>
  </scstep>
  <scstep>
   <time name="diag">    3.69    3.70</time>
   <time name="diis">   19.16   19.22</time>
   <time name="orth">    0.31    0.31</time>
   <time name="total">   27.27   27.37</time>
   <energy>
    <i name="e_fr_energy">   -189.43559333 </i>
    <i name="e_wo_entrp">   -189.42527996 </i>
    <i name="e_0_energy">   -189.43215554 </i>
   </energy>
  </scstep>
  <scstep>
   <time name="diag">    3.71    3.76</time>
   <time name="diis">   19.00   19.07</time>
   <time name="orth">    0.31    0.31</time>
   <time name="total">   27.17   27.31</time>
   <energy>
    <i name="e_fr_energy">   -189.28651930 </i>
    <i name="e_wo_entrp">   -189.26115916 </i>
    <i name="e_0_energy">   -189.27806592 </i>
   </energy>
  </scstep>
  <scstep>
   <time name="diag">    3.68    3.71</time>
   <time name="diis">   19.14   19.24</time>
   <time name="orth">    0.31    0.31</time>
   <time name="total">   27.28   27.43</time>
   <energy>
    <i name="e_fr_energy">   -189.13048580 </i>
    <i name="e_wo_entrp">   -189.18268576 </i>
    <i name="e_0_energy">   -189.14788578 </i>
   </energy>
  </scstep>
  <scstep>
   <time name="diag">    3.69    3.71</time>
   <time name="diis">   18.44   18.55</time>
   <time name="orth">    0.31    0.31</time>
   <time name="total">   26.61   26.75</time>
   <energy>
    <i name="e_fr_energy">   -189.01224953 </i>
    <i name="e_wo_entrp">   -189.06454762 </i>
    <i name="e_0_energy">   -189.02968223 </i>
   </energy>
  </scstep>
  <scstep>
   <time name="diag">    3.74    3.76</time>
   <time name="diis">   18.49   18.59</time>
   <time name="orth">    0.31    0.31</time>
   <time name="total">   26.70   26.86</time>
   <energy>
    <i name="e_fr_energy">   -189.04015786 </i>
    <i name="e_wo_entrp">   -189.09608453 </i>
    <i name="e_0_energy">   -189.05880009 </i>
   </energy>
  </scstep>
  <scstep>
   <time name="diag">    3.71    3.72</time>
   <time name="diis">   17.43   17.54</time>
   <time name="orth">    0.31    0.31</time>
   <time name="total">   25.66   25.79</time>
   <energy>
    <i name="e_fr_energy">   -189.01425944 </i>
    <i name="e_wo_entrp">   -189.07931721 </i>
    <i name="e_0_energy">   -189.03594536 </i>
   </energy>
  </scstep>
  <scstep>
   <time name="diag">    3.72    3.73</time>
   <time name="diis">   17.00   17.07</time>
   <time name="orth">    0.31    0.31</time>
   <time name="total">   25.25   25.34</time>
   <energy>
    <i name="e_fr_energy">   -189.01257368 </i>
    <i name="e_wo_entrp">   -189.08368148 </i>
    <i name="e_0_energy">   -189.03627628 </i>
   </energy>
  </scstep>
  <scstep>
   <time name="diag">    3.71    3.72</time>
   <time name="diis">   16.92   16.98</time>
   <time name="orth">    0.31    0.31</time>
   <time name="total">   25.19   25.28</time>
   <energy>
    <i name="e_fr_energy">   -188.98773083 </i>
    <i name="e_wo_entrp">   -189.06813835 </i>
    <i name="e_0_energy">   -189.01453334 </i>
   </energy>
  </scstep>
  <scstep>
   <time name="diag">    3.71    3.73</time>
   <time name="diis">   17.00   17.07</time>
   <time name="orth">    0.31    0.32</time>
   <time name="total">   25.25   25.35</time>
   <energy>
    <i name="e_fr_energy">   -188.95791950 </i>
    <i name="e_wo_entrp">   -189.03251361 </i>
    <i name="e_0_energy">   -188.98278420 </i>
   </energy>
  </scstep>
  <scstep>
   <time name="diag">    3.73    3.74</time>
   <time name="diis">   16.47   16.54</time>
   <time name="orth">    0.31    0.31</time>
   <time name="total">   24.76   24.86</time>
   <energy>
    <i name="e_fr_energy">   -188.94568330 </i>
    <i name="e_wo_entrp">   -189.01596102 </i>
    <i name="e_0_energy">   -188.96910921 </i>
   </energy>
  </scstep>
  <scstep>
   <time name="diag">    3.69    3.70</time>
   <time name="diis">   16.76   16.85</time>
   <time name="orth">    0.31    0.31</time>
   <time name="total">   25.00   25.12</time>
   <energy>
    <i name="e_fr_energy">   -188.93623676 </i>
    <i name="e_wo_entrp">   -189.00804105 </i>
    <i name="e_0_energy">   -188.96017152 </i>
   </energy>
  </scstep>
  <scstep>
   <time name="diag">    3.71    3.75</time>
   <time name="diis">   16.96   17.08</time>
   <time name="orth">    0.31    0.31</time>
   <time name="total">   25.23   25.41</time>
   <energy>
    <i name="e_fr_energy">   -188.93201421 </i>
    <i name="e_wo_entrp">   -189.00025306 </i>
    <i name="e_0_energy">   -188.95476049 </i>
   </energy>
  </scstep>
  <scstep>
   <time name="diag">    3.73    3.75</time>
   <time name="diis">   17.66   17.75</time>
   <time name="orth">    0.31    0.31</time>
   <time name="total">   25.92   26.11</time>
   <energy>
    <i name="e_fr_energy">   -188.92971028 </i>
    <i name="e_wo_entrp">   -188.99886496 </i>
    <i name="e_0_energy">   -188.95276184 </i>
   </energy>
  </scstep>
  <scstep>
   <time name="diag">    3.67    3.68</time>
   <time name="diis">   14.02   14.06</time>
   <time name="orth">    0.31    0.31</time>
   <time name="total">   22.27   22.35</time>
   <energy>
    <i name="e_fr_energy">   -188.92992722 </i>
    <i name="e_wo_entrp">   -188.99984015 </i>
    <i name="e_0_energy">   -188.95323153 </i>
   </energy>
  </scstep>
  <scstep>
   <time name="diag">    3.69    3.70</time>
   <time name="diis">   11.67   11.76</time>
   <time name="orth">    0.31    0.31</time>
   <time name="total">   19.92   20.04</time>
   <energy>
    <i name="e_fr_energy">   -188.93107355 </i>
    <i name="e_wo_entrp">   -189.00153017 </i>
    <i name="e_0_energy">   -188.95455909 </i>
   </energy>
  </scstep>
  <scstep>
   <time name="diag">    3.69    3.70</time>
   <time name="diis">   10.48   10.52</time>
   <time name="orth">    0.31    0.31</time>
   <time name="total">   18.75   18.82</time>
   <energy>
    <i name="e_fr_energy">   -188.93278737 </i>
    <i name="e_wo_entrp">   -189.00218962 </i>
    <i name="e_0_energy">   -188.95592146 </i>
   </energy>
  </scstep>
  <scstep>
   <time name="diag">    3.67    3.69</time>
   <time name="diis">   11.52   11.56</time>
   <time name="orth">    0.31    0.31</time>
   <time name="total">   19.75   19.86</time>
   <energy>
    <i name="e_fr_energy">   -188.93547964 </i>
    <i name="e_wo_entrp">   -189.00415656 </i>
    <i name="e_0_energy">   -188.95837195 </i>
   </energy>
  </scstep>
  <scstep>
   <time name="diag">    3.67    3.68</time>
   <time name="diis">   12.19   12.27</time>
   <time name="orth">    0.31    0.31</time>
   <time name="total">   20.51   20.62</time>
   <energy>
    <i name="e_fr_energy">   -188.93912431 </i>
    <i name="e_wo_entrp">   -189.00840368 </i>
    <i name="e_0_energy">   -188.96221743 </i>
   </energy>
  </scstep>
  <scstep>
   <time name="diag">    3.67    3.68</time>
   <time name="diis">   11.98   12.03</time>
   <time name="orth">    0.31    0.32</time>
   <time name="total">   20.27   20.40</time>
   <energy>
    <i name="e_fr_energy">   -188.94105126 </i>
    <i name="e_wo_entrp">   -189.01049791 </i>
    <i name="e_0_energy">   -188.96420014 </i>
   </energy>
  </scstep>
  <scstep>
   <time name="diag">    3.68    3.70</time>
   <time name="diis">   12.13   12.19</time>
   <time name="orth">    0.31    0.31</time>
   <time name="total">   20.52   20.62</time>
   <energy>
    <i name="e_fr_energy">   -188.94326692 </i>
    <i name="e_wo_entrp">   -189.01284755 </i>
    <i name="e_0_energy">   -188.96646047 </i>
   </energy>
  </scstep>
  <scstep>
   <time name="diag">    3.68    3.69</time>
   <time name="diis">   10.73   10.83</time>
   <time name="orth">    0.31    0.31</time>
   <time name="total">   19.14   19.28</time>
   <energy>
    <i name="e_fr_energy">   -188.94399193 </i>
    <i name="e_wo_entrp">   -189.01347540 </i>
    <i name="e_0_energy">   -188.96715309 </i>
   </energy>
  </scstep>
  <scstep>
   <time name="diag">    3.73    3.74</time>
   <time name="diis">    9.99   10.02</time>
   <time name="orth">    0.31    0.31</time>
   <time name="total">   18.46   18.51</time>
   <energy>
    <i name="e_fr_energy">   -188.94453291 </i>
    <i name="e_wo_entrp">   -189.01386355 </i>
    <i name="e_0_energy">   -188.96764312 </i>
   </energy>
  </scstep>
  <scstep>
   <time name="diag">    3.70    3.76</time>
   <time name="diis">    8.97    8.99</time>
   <time name="orth">    0.31    0.31</time>
   <time name="total">   17.43   17.53</time>
   <energy>
    <i name="e_fr_energy">   -188.94480286 </i>
    <i name="e_wo_entrp">   -189.01414787 </i>
    <i name="e_0_energy">   -188.96791786 </i>
   </energy>
  </scstep>
  <scstep>
   <time name="diag">    3.66    3.67</time>
   <time name="diis">    8.71    8.74</time>
   <time name="orth">    0.32    0.32</time>
   <time name="total">   17.14   17.19</time>
   <energy>
    <i name="e_fr_energy">   -188.94502551 </i>
    <i name="e_wo_entrp">   -189.01442626 </i>
    <i name="e_0_energy">   -188.96815909 </i>
   </energy>
  </scstep>
  <scstep>
   <time name="diag">    3.73    3.75</time>
   <time name="diis">    7.74    7.77</time>
   <time name="orth">    0.31    0.32</time>
   <time name="total">   16.26   16.35</time>
   <energy>
    <i name="e_fr_energy">   -188.94516557 </i>
    <i name="e_wo_entrp">   -189.01453453 </i>
    <i name="e_0_energy">   -188.96828855 </i>
   </energy>
  </scstep>
  <scstep>
   <time name="diag">    3.69    3.70</time>
   <time name="diis">    7.84    7.87</time>
   <time name="orth">    0.33    0.33</time>
   <time name="total">   16.32   16.40</time>
   <energy>
    <i name="e_fr_energy">   -188.94529960 </i>
    <i name="e_wo_entrp">   -189.01469128 </i>
    <i name="e_0_energy">   -188.96843016 </i>
   </energy>
  </scstep>
  <scstep>
   <time name="diag">    3.69    3.70</time>
   <time name="diis">    7.51    7.54</time>
   <time name="orth">    0.32    0.32</time>
   <time name="total">   13.79   13.83</time>
   <energy>
    <i name="alphaZ">    362.96560263 </i>
    <i name="ewald">  69185.68759330 </i>
    <i name="hartreedc"> -96859.49762903 </i>
    <i name="XCdc">    -84.17802927 </i>
    <i name="pawpsdc">  23433.50797416 </i>
    <i name="pawaedc"> -22228.76408294 </i>
    <i name="eentropy">      0.06939302 </i>
    <i name="bandstr">  -2655.77939936 </i>
    <i name="atom">  28657.04318630 </i>
    <i name="e_fr_energy">   -188.94539118 </i>
    <i name="e_wo_entrp">   -189.01478420 </i>
    <i name="e_0_energy">   -188.96852219 </i>
   </energy>
  </scstep>
  <structure>
   <crystal>
    <varray name="basis" >
     <v>      18.00000000       0.00000000       0.00000000 </v>
     <v>       0.00000000      18.00000000       0.00000000 </v>
     <v>       0.00000000       0.00000000      18.00000000 </v>
    </varray>
    <i name="volume">   5832.00000000 </i>
    <varray name="rec_basis" >
     <v>       0.05555556       0.00000000       0.00000000 </v>
     <v>       0.00000000       0.05555556       0.00000000 </v>
     <v>       0.00000000       0.00000000       0.05555556 </v>
    </varray>
   </crystal>
   <varray name="positions" >
    <v>       0.72648437       0.57060922       0.49506623 </v>
    <v>       0.57060956       0.72648438       0.49506605 </v>
    <v>       0.27941432       0.57601525       0.50331374 </v>
    <v>       0.42313994       0.72081014       0.50380470 </v>
    <v>       0.27694893       0.42800874       0.49696515 </v>
    <v>       0.42800874       0.27694901       0.49696529 </v>
    <v>       0.72080995       0.42313965       0.50380505 </v>
    <v>       0.57601516       0.27941435       0.50331404 </v>
    <v>       0.66231633       0.50403826       0.61307121 </v>
    <v>       0.33652407       0.49602875       0.61400431 </v>
    <v>       0.50403831       0.66231645       0.61307097 </v>
    <v>       0.49602855       0.33652421       0.61400449 </v>
    <v>       0.65601429       0.65601423       0.59403966 </v>
    <v>       0.35857903       0.64171542       0.61763218 </v>
    <v>       0.34578792       0.34578808       0.60350228 </v>
    <v>       0.64171522       0.35857897       0.61763267 </v>
    <v>       0.66104536       0.49670432       0.38501745 </v>
    <v>       0.33873405       0.50341549       0.38426328 </v>
    <v>       0.49670459       0.66104529       0.38501732 </v>
    <v>       0.50341552       0.33873394       0.38426339 </v>
    <v>       0.64532816       0.64532787       0.39195030 </v>
    <v>       0.34780704       0.65261278       0.39342497 </v>
    <v>       0.35468988       0.35468982       0.39113336 </v>
    <v>       0.65261278       0.34780678       0.39342512 </v>
    <v>       0.59015220       0.59015241       0.70542871 </v>
    <v>       0.43956129       0.56997165       0.71545317 </v>
    <v>       0.41411740       0.41411767       0.70911205 </v>
    <v>       0.56997134       0.43956149       0.71545339 </v>
    <v>       0.57115446       0.57115425       0.28967771 </v>
    <v>       0.42165920       0.57999970       0.28634908 </v>
    <v>       0.42931653       0.42931640       0.28942505 </v>
    <v>       0.57999982       0.42165896       0.28634917 </v>
    <v>       0.49900258       0.49900272       0.60372206 </v>
    <v>       0.42559653       0.42559658       0.49918789 </v>
    <v>       0.42574256       0.57391110       0.50013323 </v>
    <v>       0.49990285       0.49990276       0.39426576 </v>
    <v>       0.57414137       0.57414129       0.49876042 </v>
    <v>       0.57391103       0.42574251       0.50013338 </v>
    <v>       0.47799877       0.47799912       0.77679574 </v>
   </varray>
  </structure>
  <varray name="forces" >
   <v>      -0.00308130      -0.00439188      -0.00176595 </v>
   <v>      -0.00441009      -0.00308004      -0.00181349 </v>
   <v>       0.00234740       0.00206148       0.00076944 </v>
   <v>      -0.00407532      -0.00325252       0.00214032 </v>
   <v>       0.00419250       0.00286151      -0.00303101 </v>
   <v>       0.00276825       0.00424237      -0.00297390 </v>
   <v>      -0.00329885      -0.00410095       0.00209645 </v>
   <v>       0.00217525       0.00237411       0.00079854 </v>
   <v>      -0.00038262      -0.00061298       0.00176582 </v>
   <v>      -0.00054252      -0.00067185       0.00086100 </v>
   <v>      -0.00060921      -0.00025660       0.00179216 </v>
   <v>      -0.00067623      -0.00059528       0.00088626 </v>
   <v>       0.00027493       0.00023204      -0.00322684 </v>
   <v>      -0.00027427      -0.00203568       0.00609321 </v>
   <v>       0.00104317       0.00097131      -0.00120584 </v>
   <v>      -0.00203051      -0.00022686       0.00601976 </v>
   <v>      -0.00069224      -0.00440435      -0.00167349 </v>
   <v>       0.00135609       0.00374970      -0.00268321 </v>
   <v>      -0.00437078      -0.00073656      -0.00167189 </v>
   <v>       0.00372962       0.00131720      -0.00267579 </v>
   <v>      -0.00487405      -0.00483351      -0.00227321 </v>
   <v>      -0.00426654       0.00336408      -0.00190864 </v>
   <v>       0.00512301       0.00512212      -0.00361080 </v>
   <v>       0.00338679      -0.00430584      -0.00180836 </v>
   <v>       0.00289155       0.00292351       0.00083573 </v>
   <v>       0.00436608       0.00133438       0.00513337 </v>
   <v>      -0.00010053      -0.00010687       0.00101402 </v>
   <v>       0.00132219       0.00442185       0.00505765 </v>
   <v>      -0.00550027      -0.00553491      -0.00164331 </v>
   <v>      -0.00426621       0.00517965      -0.00528308 </v>
   <v>       0.00612976       0.00610414      -0.00136516 </v>
   <v>       0.00517550      -0.00418109      -0.00542837 </v>
   <v>      -0.00098111      -0.00101260       0.00413844 </v>
   <v>       0.00274373       0.00270769      -0.00088480 </v>
   <v>      -0.00095927       0.00015784       0.00213152 </v>
   <v>       0.00026940       0.00027589       0.00030798 </v>
   <v>      -0.00316955      -0.00320440       0.00118116 </v>
   <v>       0.00013157      -0.00096645       0.00210587 </v>
   <v>      -0.00086534      -0.00088965       0.00179843 </v>
  </varray>
  <energy>
   <i name="e_fr_energy">   -188.94539118 </i>
   <i name="e_wo_entrp">   -188.96852219 </i>
   <i name="e_0_energy">      0.06939302 </i>
  </energy>
  <time name="totalsc">  884.43  888.25</time>
 </calculation>
 <calculation>
  <scstep>
   <time name="diag">    3.67    3.67</time>
   <time name="diis">   13.83   13.92</time>
   <time name="orth">    0.31    0.32</time>
   <time name="total">   22.04   22.17</time>
   <energy>
    <i name="alphaZ">    362.96560263 </i>
    <i name="ewald">  69185.62197739 </i>
    <i name="hartreedc"> -96859.47018651 </i>
    <i name="XCdc">    -84.17774009 </i>
    <i name="pawpsdc">  23433.53382088 </i>
    <i name="pawaedc"> -22228.78952681 </i>
    <i name="eentropy">      0.06941499 </i>
    <i name="bandstr">  -2655.74200316 </i>
    <i name="atom">  28657.04318630 </i>
    <i name="e_fr_energy">   -188.94545439 </i>
    <i name="e_wo_entrp">   -189.01486938 </i>
    <i name="e_0_energy">   -188.96859272 </i>
   </energy>
  </scstep>
  <scstep>
   <time name="diag">    3.71    3.72</time>
   <time name="diis">    8.90    8.98</time>
   <time name="orth">    0.31    0.32</time>
   <time name="total">   15.19   15.29</time>
   <energy>
    <i name="alphaZ">    362.96560263 </i>
    <i name="ewald">  69185.62197739 </i>
    <i name="hartreedc"> -96859.47333902 </i>
    <i name="XCdc">    -84.17777296 </i>
    <i name="pawpsdc">  23433.50388405 </i>
    <i name="pawaedc"> -22228.76017883 </i>
    <i name="eentropy">      0.06940790 </i>
    <i name="bandstr">  -2655.73824195 </i>
    <i name="atom">  28657.04318630 </i>
    <i name="e_fr_energy">   -188.94547450 </i>
    <i name="e_wo_entrp">   -189.01488240 </i>
    <i name="e_0_energy">   -188.96861047 </i>
   </energy>
  </scstep>
  <structure>
   <crystal>
    <varray name="basis" >
     <v>      18.00000000       0.00000000       0.00000000 </v>
     <v>       0.00000000      18.00000000       0.00000000 </v>
     <v>       0.00000000       0.00000000      18.00000000 </v>
    </varray>
    <i name="volume">   5832.00000000 </i>
    <varray name="rec_basis" >
     <v>       0.05555556       0.00000000       0.00000000 </v>
     <v>       0.00000000       0.05555556       0.00000000 </v>
     <v>       0.00000000       0.00000000       0.05555556 </v>
    </varray>
   </crystal>
   <varray name="positions" >
    <v>       0.72648271       0.57060687       0.49506528 </v>
    <v>       0.57060719       0.72648273       0.49506508 </v>
    <v>       0.27941558       0.57601636       0.50331415 </v>
    <v>       0.42313775       0.72080839       0.50380585 </v>
    <v>       0.27695118       0.42801027       0.49696353 </v>
    <v>       0.42801022       0.27695128       0.49696370 </v>
    <v>       0.72080818       0.42313745       0.50380617 </v>
    <v>       0.57601633       0.27941562       0.50331447 </v>
    <v>       0.66231613       0.50403793       0.61307215 </v>
    <v>       0.33652378       0.49602839       0.61400477 </v>
    <v>       0.50403799       0.66231631       0.61307193 </v>
    <v>       0.49602819       0.33652389       0.61400496 </v>
    <v>       0.65601444       0.65601435       0.59403794 </v>
    <v>       0.35857888       0.64171433       0.61763545 </v>
    <v>       0.34578848       0.34578860       0.60350164 </v>
    <v>       0.64171413       0.35857885       0.61763589 </v>
    <v>       0.66104499       0.49670196       0.38501655 </v>
    <v>       0.33873477       0.50341750       0.38426184 </v>
    <v>       0.49670225       0.66104489       0.38501642 </v>
    <v>       0.50341752       0.33873465       0.38426196 </v>
    <v>       0.64532555       0.64532528       0.39194908 </v>
    <v>       0.34780475       0.65261458       0.39342394 </v>
    <v>       0.35469263       0.35469257       0.39113143 </v>
    <v>       0.65261460       0.34780447       0.39342415 </v>
    <v>       0.59015375       0.59015397       0.70542916 </v>
    <v>       0.43956363       0.56997236       0.71545592 </v>
    <v>       0.41411734       0.41411761       0.70911259 </v>
    <v>       0.56997205       0.43956386       0.71545610 </v>
    <v>       0.57115152       0.57115128       0.28967683 </v>
    <v>       0.42165691       0.58000248       0.28634625 </v>
    <v>       0.42931981       0.42931968       0.28942432 </v>
    <v>       0.58000259       0.42165672       0.28634626 </v>
    <v>       0.49900206       0.49900217       0.60372428 </v>
    <v>       0.42559800       0.42559804       0.49918742 </v>
    <v>       0.42574205       0.57391118       0.50013437 </v>
    <v>       0.49990300       0.49990291       0.39426593 </v>
    <v>       0.57413967       0.57413958       0.49876105 </v>
    <v>       0.57391110       0.42574199       0.50013451 </v>
    <v>       0.47799830       0.47799864       0.77679670 </v>
   </varray>
  </structure>
  <varray name="forces" >
   <v>      -0.00110847      -0.00220670      -0.00063561 </v>
   <v>      -0.00207758      -0.00101475      -0.00060064 </v>
   <v>       0.00135848       0.00104831       0.00017754 </v>
   <v>      -0.00170519      -0.00157843       0.00087287 </v>
   <v>       0.00099412       0.00113795      -0.00116767 </v>
   <v>       0.00136980       0.00106841      -0.00112708 </v>
   <v>      -0.00168947      -0.00161898       0.00090498 </v>
   <v>       0.00093752       0.00126542       0.00018841 </v>
   <v>      -0.00037580      -0.00042068       0.00051550 </v>
   <v>      -0.00004698      -0.00012441       0.00044784 </v>
   <v>      -0.00024645      -0.00032301       0.00050244 </v>
   <v>      -0.00008453       0.00011606       0.00024142 </v>
   <v>       0.00012653       0.00012067      -0.00127556 </v>
   <v>       0.00022506      -0.00106096       0.00215011 </v>
   <v>       0.00029903       0.00025777      -0.00026108 </v>
   <v>      -0.00127139       0.00047932       0.00229752 </v>
   <v>      -0.00056317      -0.00213446      -0.00038885 </v>
   <v>       0.00086183       0.00173353      -0.00080425 </v>
   <v>      -0.00208052      -0.00041691      -0.00043218 </v>
   <v>       0.00179321       0.00095354      -0.00083482 </v>
   <v>      -0.00141798      -0.00146128      -0.00123887 </v>
   <v>      -0.00121973       0.00069652      -0.00047712 </v>
   <v>       0.00169533       0.00166847      -0.00218783 </v>
   <v>       0.00058714      -0.00103134      -0.00064730 </v>
   <v>       0.00120269       0.00108263       0.00030642 </v>
   <v>       0.00172211       0.00058273       0.00191646 </v>
   <v>       0.00006100      -0.00004195       0.00048796 </v>
   <v>       0.00049122       0.00166209       0.00168601 </v>
   <v>      -0.00265637      -0.00274307      -0.00150385 </v>
   <v>      -0.00183851       0.00211743      -0.00147249 </v>
   <v>       0.00303472       0.00292927      -0.00046588 </v>
   <v>       0.00209677      -0.00187647      -0.00101854 </v>
   <v>      -0.00009526      -0.00006677       0.00063193 </v>
   <v>       0.00054548       0.00053450       0.00046318 </v>
   <v>      -0.00026054       0.00021922       0.00007549 </v>
   <v>      -0.00005191      -0.00011569       0.00002506 </v>
   <v>      -0.00047781      -0.00043014       0.00030050 </v>
   <v>       0.00034554      -0.00029375       0.00014145 </v>
   <v>      -0.00047990      -0.00071407       0.00220653 </v>
  </varray>
  <energy>
   <i name="e_fr_energy">   -188.94547450 </i>
   <i name="e_wo_entrp">   -188.96861047 </i>
   <i name="e_0_energy">      0.06940790 </i>
  </energy>
  <time name="totalsc">   50.48   50.80</time>
  <eigenvalues>
   <array>
    <dimension dim="1">band</dimension>
    <dimension dim="2">kpoint</dimension>
    <dimension dim="3">spin</dimension>
    <field>eigene</field>
    <field>occ</field>
    <set>
     <set comment="spin 1">
      <set comment="kpoint 1">
       <r>  -23.1486    1.0000 </r>
       <r>  -11.4093    1.0000 </r>
       <r>  -10.7255    1.0000 </r>
       <r>  -10.6881    1.0000 </r>
       <r>  -10.5480    1.0000 </r>
       <r>  -10.4054    1.0000 </r>
       <r>  -10.3516    1.0000 </r>
       <r>   -9.9827    1.0000 </r>
       <r>   -9.9013    1.0000 </r>
       <r>   -9.8252    1.0000 </r>
       <r>   -9.8240    1.0000 </r>
       <r>   -9.7204    1.0000 </r>
       <r>   -9.6051    1.0000 </r>
       <r>   -9.5569    1.0000 </r>
       <r>   -9.5485    1.0000 </r>
       <r>   -9.4975    1.0000 </r>
       <r>   -9.4791    1.0000 </r>
       <r>   -9.4284    1.0000 </r>
       <r>   -9.3154    1.0000 </r>
       <r>   -9.2454    1.0000 </r>
       <r>   -9.1675    1.0000 </r>
       <r>   -9.1484    1.0000 </r>
       <r>   -9.1423    1.0000 </r>
       <r>   -9.1288    1.0000 </r>
       <r>   -9.1193    1.0000 </r>
       <r>   -9.0944    1.0000 </r>
       <r>   -9.0927    1.0000 </r>
       <r>   -9.0376    1.0000 </r>
       <r>   -9.0265    1.0000 </r>
       <r>   -9.0170    1.0000 </r>
       <r>   -8.9446    1.0000 </r>
       <r>   -8.8962    1.0000 </r>
       <r>   -8.8932    1.0000 </r>
       <r>   -8.8546    1.0000 </r>
       <r>   -8.7913    1.0000 </r>
       <r>   -8.7643    1.0000 </r>
       <r>   -8.7600    1.0000 </r>
       <r>   -8.7450    1.0000 </r>
       <r>   -8.7417    1.0000 </r>
       <r>   -8.7408    1.0000 </r>
       <r>   -8.7112    1.0000 </r>
       <r>   -8.6653    1.0000 </r>
       <r>   -8.6469    1.0000 </r>
       <r>   -8.5788    1.0000 </r>
       <r>   -8.4926    1.0000 </r>
       <r>   -8.4321    1.0000 </r>
       <r>   -8.3465    1.0000 </r>
       <r>   -8.2319    1.0000 </r>
       <r>   -8.2155    1.0000 </r>
       <r>   -8.0917    1.0000 </r>
       <r>   -8.0825    1.0000 </r>
       <r>   -8.0331    1.0000 </r>
       <r>   -7.9862    1.0000 </r>
       <r>   -7.9644    1.0000 </r>
       <r>   -7.9278    1.0000 </r>
       <r>   -7.8885    1.0000 </r>
       <r>   -7.8571    1.0000 </r>
       <r>   -7.8478    1.0000 </r>
       <r>   -7.8471    1.0000 </r>
       <r>   -7.8266    1.0000 </r>
       <r>   -7.8256    1.0000 </r>
       <r>   -7.8200    1.0000 </r>
       <r>   -7.7670    1.0000 </r>
       <r>   -7.7557    1.0000 </r>
       <r>   -7.7373    1.0000 </r>
       <r>   -7.7298    1.0000 </r>
       <r>   -7.7056    1.0000 </r>
       <r>   -7.6779    1.0000 </r>
       <r>   -7.6191    1.0000 </r>
       <r>   -7.6027    1.0000 </r>
       <r>   -7.5999    1.0000 </r>
       <r>   -7.5753    1.0000 </r>
       <r>   -7.5637    1.0000 </r>
       <r>   -7.5478    1.0000 </r>
       <r>   -7.5156    1.0000 </r>
       <r>   -7.4893    1.0000 </r>
       <r>   -7.4008    1.0000 </r>
       <r>   -7.3208    1.0000 </r>
       <r>   -7.3106    1.0000 </r>
       <r>   -7.2424    1.0000 </r>
       <r>   -7.2119    1.0000 </r>
       <r>   -7.1609    1.0000 </r>
       <r>   -7.1438    1.0000 </r>
       <r>   -7.0721    1.0000 </r>
       <r>   -7.0120    1.0000 </r>
       <r>   -6.9680    1.0000 </r>
       <r>   -6.9578    1.0000 </r>
       <r>   -6.9300    1.0000 </r>
       <r>   -6.8998    1.0000 </r>
       <r>   -6.8706    1.0000 </r>
       <r>   -6.8540    1.0000 </r>
       <r>   -6.8161    1.0000 </r>
       <r>   -6.7487    1.0000 </r>
       <r>   -6.7315    1.0000 </r>
       <r>   -6.7012    1.0000 </r>
       <r>   -6.6905    1.0000 </r>
       <r>   -6.5744    1.0000 </r>
       <r>   -6.5613    1.0000 </r>
       <r>   -6.5187    1.0000 </r>
       <r>   -6.4633    1.0000 </r>
       <r>   -6.4472    1.0000 </r>
       <r>   -6.4393    1.0000 </r>
       <r>   -6.3903    1.0000 </r>
       <r>   -6.3832    1.0000 </r>
       <r>   -6.3785    1.0000 </r>
       <r>   -6.3487    1.0000 </r>
       <r>   -6.3322    1.0000 </r>
       <r>   -6.2998    1.0000 </r>
       <r>   -6.2740    1.0000 </r>
       <r>   -6.2659    1.0000 </r>
       <r>   -6.2366    1.0000 </r>
       <r>   -6.1951    1.0000 </r>
       <r>   -6.1297    1.0000 </r>
       <r>   -6.1247    1.0000 </r>
       <r>   -6.0749    1.0000 </r>
       <r>   -6.0432    1.0000 </r>
       <r>   -6.0390    1.0000 </r>
       <r>   -6.0207    1.0000 </r>
       <r>   -6.0123    1.0000 </r>
       <r>   -5.9976    1.0000 </r>
       <r>   -5.9676    1.0000 </r>
       <r>   -5.9510    1.0000 </r>
       <r>   -5.9005    1.0000 </r>
       <r>   -5.8081    1.0000 </r>
       <r>   -5.6261    1.0000 </r>
       <r>   -5.6045    1.0000 </r>
       <r>   -5.5465    1.0000 </r>
       <r>   -5.5417    1.0000 </r>
       <r>   -5.5112    1.0000 </r>
       <r>   -5.5029    1.0000 </r>
       <r>   -5.4519    1.0000 </r>
       <r>   -5.4472    1.0000 </r>
       <r>   -5.4263    1.0000 </r>
       <r>   -5.3962    1.0000 </r>
       <r>   -5.3706    1.0000 </r>
       <r>   -5.3601    1.0000 </r>
       <r>   -5.3339    1.0000 </r>
       <r>   -5.3234    1.0000 </r>
       <r>   -5.3135    1.0000 </r>
       <r>   -5.2777    1.0000 </r>
       <r>   -5.2464    1.0000 </r>
       <r>   -5.2361    1.0000 </r>
       <r>   -5.2036    1.0000 </r>
       <r>   -5.1611    1.0000 </r>
       <r>   -5.1578    1.0000 </r>
       <r>   -5.0809    1.0000 </r>
       <r>   -5.0666    1.0000 </r>
       <r>   -5.0089    1.0000 </r>
       <r>   -4.9975    1.0000 </r>
       <r>   -4.9684    1.0000 </r>
       <r>   -4.9633    1.0000 </r>
       <r>   -4.9446    1.0000 </r>
       <r>   -4.9345    1.0000 </r>
       <r>   -4.9179    1.0000 </r>
       <r>   -4.8998    1.0000 </r>
       <r>   -4.8967    1.0000 </r>
       <r>   -4.8886    1.0000 </r>
       <r>   -4.8668    1.0000 </r>
       <r>   -4.8401    1.0000 </r>
       <r>   -4.8315    1.0000 </r>
       <r>   -4.8296    1.0000 </r>
       <r>   -4.8062    1.0001 </r>
       <r>   -4.7756    1.0001 </r>
       <r>   -4.7706    1.0001 </r>
       <r>   -4.7136    1.0006 </r>
       <r>   -4.6941    1.0009 </r>
       <r>   -4.6410    1.0029 </r>
       <r>   -4.6287    1.0037 </r>
       <r>   -4.6234    1.0041 </r>
       <r>   -4.6029    1.0059 </r>
       <r>   -4.5818    1.0083 </r>
       <r>   -4.5750    1.0093 </r>
       <r>   -4.5580    1.0120 </r>
       <r>   -4.5430    1.0147 </r>
       <r>   -4.5367    1.0160 </r>
       <r>   -4.5267    1.0181 </r>
       <r>   -4.5250    1.0184 </r>
       <r>   -4.4994    1.0242 </r>
       <r>   -4.4965    1.0249 </r>
       <r>   -4.4854    1.0274 </r>
       <r>   -4.4723    1.0303 </r>
       <r>   -4.4646    1.0317 </r>
       <r>   -4.4462    1.0345 </r>
       <r>   -4.4402    1.0350 </r>
       <r>   -4.4114    1.0341 </r>
       <r>   -4.3921    1.0287 </r>
       <r>   -4.3576    1.0050 </r>
       <r>   -4.3301    0.9694 </r>
       <r>   -4.3209    0.9535 </r>
       <r>   -4.2644    0.8102 </r>
       <r>   -4.2488    0.7574 </r>
       <r>   -4.2144    0.6251 </r>
       <r>   -4.1895    0.5212 </r>
       <r>   -4.1311    0.2830 </r>
       <r>   -4.1195    0.2408 </r>
       <r>   -4.1095    0.2063 </r>
       <r>   -4.1077    0.2003 </r>
       <r>   -4.0729    0.0998 </r>
       <r>   -4.0621    0.0748 </r>
       <r>   -4.0290    0.0160 </r>
       <r>   -3.9618   -0.0332 </r>
       <r>   -3.9479   -0.0352 </r>
       <r>   -3.9172   -0.0338 </r>
       <r>   -3.8625   -0.0226 </r>
       <r>   -3.8233   -0.0142 </r>
       <r>   -3.7649   -0.0058 </r>
       <r>   -3.7178   -0.0024 </r>
       <r>   -3.6969   -0.0015 </r>
       <r>   -3.5635   -0.0001 </r>
       <r>   -3.4529    0.0000 </r>
       <r>   -3.2727    0.0000 </r>
       <r>   -2.4201    0.0000 </r>
       <r>   -2.3742    0.0000 </r>
       <r>   -2.3420    0.0000 </r>
       <r>   -2.3294    0.0000 </r>
       <r>   -2.2842    0.0000 </r>
       <r>   -2.2657    0.0000 </r>
       <r>   -2.2113    0.0000 </r>
       <r>   -2.1958    0.0000 </r>
       <r>   -2.1748    0.0000 </r>
       <r>   -2.0426    0.0000 </r>
       <r>   -1.8704    0.0000 </r>
       <r>   -1.5519    0.0000 </r>
       <r>   -1.3790    0.0000 </r>
       <r>   -0.9496    0.0000 </r>
       <r>   -0.9297    0.0000 </r>
       <r>   -0.8876    0.0000 </r>
       <r>   -0.5703    0.0000 </r>
       <r>   -0.5585    0.0000 </r>
       <r>   -0.3510    0.0000 </r>
       <r>   -0.3284    0.0000 </r>
       <r>   -0.2283    0.0000 </r>
      </set>
     </set>
    </set>
   </array>
  </eigenvalues>
  <separator name="orbital magnetization" >
   <v name="MAGDIPOLOUT">      0.00000000      0.00000000      0.00000000</v>
  </separator>
  <dos>
   <i name="efermi">     -4.18443439 </i>
   <total>
    <array>
     <dimension dim="1">gridpoints</dimension>
     <dimension dim="2">spin</dimension>
     <field>energy</field>
     <field>total</field>
     <field>integrated</field>
     <set>
      <set comment="spin 1">
       <r>   -25.1486     0.0000     0.0000 </r>
       <r>   -25.0588     0.0000     0.0000 </r>
       <r>   -24.9691     0.0000     0.0000 </r>
       <r>   -24.8794     0.0000     0.0000 </r>
       <r>   -24.7896     0.0000     0.0000 </r>
       <r>   -24.6999     0.0000     0.0000 </r>
       <r>   -24.6102     0.0000     0.0000 </r>
       <r>   -24.5204     0.0000     0.0000 </r>
       <r>   -24.4307     0.0000     0.0000 </r>
       <r>   -24.3410     0.0000     0.0000 </r>
       <r>   -24.2512     0.0000     0.0000 </r>
       <r>   -24.1615     0.0000     0.0000 </r>
       <r>   -24.0718     0.0000     0.0000 </r>
       <r>   -23.9820     0.0000     0.0000 </r>
       <r>   -23.8923     0.0000     0.0000 </r>
       <r>   -23.8026    -0.0004     0.0000 </r>
       <r>   -23.7128    -0.0050    -0.0005 </r>
       <r>   -23.6231    -0.0393    -0.0040 </r>
       <r>   -23.5334    -0.1813    -0.0203 </r>
       <r>   -23.4436    -0.4145    -0.0575 </r>
       <r>   -23.3539     0.0238    -0.0553 </r>
       <r>   -23.2641     2.6259     0.1803 </r>
       <r>   -23.1744     6.7196     0.7833 </r>
       <r>   -23.0847     8.1130     1.5113 </r>
       <r>   -22.9949     5.0324     1.9629 </r>
       <r>   -22.9052     1.2039     2.0709 </r>
       <r>   -22.8155    -0.3426     2.0402 </r>
       <r>   -22.7257    -0.3263     2.0109 </r>
       <r>   -22.6360    -0.1017     2.0017 </r>
       <r>   -22.5463    -0.0175     2.0002 </r>
       <r>   -22.4565    -0.0018     2.0000 </r>
       <r>   -22.3668    -0.0001     2.0000 </r>
       <r>   -22.2771     0.0000     2.0000 </r>
       <r>   -22.1873     0.0000     2.0000 </r>
       <r>   -22.0976     0.0000     2.0000 </r>
       <r>   -22.0079     0.0000     2.0000 </r>
       <r>   -21.9181     0.0000     2.0000 </r>
       <r>   -21.8284     0.0000     2.0000 </r>
       <r>   -21.7387     0.0000     2.0000 </r>
       <r>   -21.6489     0.0000     2.0000 </r>
       <r>   -21.5592     0.0000     2.0000 </r>
       <r>   -21.4695     0.0000     2.0000 </r>
       <r>   -21.3797     0.0000     2.0000 </r>
       <r>   -21.2900     0.0000     2.0000 </r>
       <r>   -21.2003     0.0000     2.0000 </r>
       <r>   -21.1105     0.0000     2.0000 </r>
       <r>   -21.0208     0.0000     2.0000 </r>
       <r>   -20.9311     0.0000     2.0000 </r>
       <r>   -20.8413     0.0000     2.0000 </r>
       <r>   -20.7516     0.0000     2.0000 </r>
       <r>   -20.6619     0.0000     2.0000 </r>
       <r>   -20.5721     0.0000     2.0000 </r>
       <r>   -20.4824     0.0000     2.0000 </r>
       <r>   -20.3927     0.0000     2.0000 </r>
       <r>   -20.3029     0.0000     2.0000 </r>
       <r>   -20.2132     0.0000     2.0000 </r>
       <r>   -20.1235     0.0000     2.0000 </r>
       <r>   -20.0337     0.0000     2.0000 </r>
       <r>   -19.9440     0.0000     2.0000 </r>
       <r>   -19.8542     0.0000     2.0000 </r>
       <r>   -19.7645     0.0000     2.0000 </r>
       <r>   -19.6748     0.0000     2.0000 </r>
       <r>   -19.5850     0.0000     2.0000 </r>
       <r>   -19.4953     0.0000     2.0000 </r>
       <r>   -19.4056     0.0000     2.0000 </r>
       <r>   -19.3158     0.0000     2.0000 </r>
       <r>   -19.2261     0.0000     2.0000 </r>
       <r>   -19.1364     0.0000     2.0000 </r>
       <r>   -19.0466     0.0000     2.0000 </r>
       <r>   -18.9569     0.0000     2.0000 </r>
       <r>   -18.8672     0.0000     2.0000 </r>
       <r>   -18.7774     0.0000     2.0000 </r>
       <r>   -18.6877     0.0000     2.0000 </r>
       <r>   -18.5980     0.0000     2.0000 </r>
       <r>   -18.5082     0.0000     2.0000 </r>
       <r>   -18.4185     0.0000     2.0000 </r>
       <r>   -18.3288     0.0000     2.0000 </r>
       <r>   -18.2390     0.0000     2.0000 </r>
       <r>   -18.1493     0.0000     2.0000 </r>
       <r>   -18.0596     0.0000     2.0000 </r>
       <r>   -17.9698     0.0000     2.0000 </r>
       <r>   -17.8801     0.0000     2.0000 </r>
       <r>   -17.7904     0.0000     2.0000 </r>
       <r>   -17.7006     0.0000     2.0000 </r>
       <r>   -17.6109     0.0000     2.0000 </r>
       <r>   -17.5212     0.0000     2.0000 </r>
       <r>   -17.4314     0.0000     2.0000 </r>
       <r>   -17.3417     0.0000     2.0000 </r>
       <r>   -17.2520     0.0000     2.0000 </r>
       <r>   -17.1622     0.0000     2.0000 </r>
       <r>   -17.0725     0.0000     2.0000 </r>
       <r>   -16.9828     0.0000     2.0000 </r>
       <r>   -16.8930     0.0000     2.0000 </r>
       <r>   -16.8033     0.0000     2.0000 </r>
       <r>   -16.7136     0.0000     2.0000 </r>
       <r>   -16.6238     0.0000     2.0000 </r>
       <r>   -16.5341     0.0000     2.0000 </r>
       <r>   -16.4443     0.0000     2.0000 </r>
       <r>   -16.3546     0.0000     2.0000 </r>
       <r>   -16.2649     0.0000     2.0000 </r>
       <r>   -16.1751     0.0000     2.0000 </r>
       <r>   -16.0854     0.0000     2.0000 </r>
       <r>   -15.9957     0.0000     2.0000 </r>
       <r>   -15.9059     0.0000     2.0000 </r>
       <r>   -15.8162     0.0000     2.0000 </r>
       <r>   -15.7265     0.0000     2.0000 </r>
       <r>   -15.6367     0.0000     2.0000 </r>
       <r>   -15.5470     0.0000     2.0000 </r>
       <r>   -15.4573     0.0000     2.0000 </r>
       <r>   -15.3675     0.0000     2.0000 </r>
       <r>   -15.2778     0.0000     2.0000 </r>
       <r>   -15.1881     0.0000     2.0000 </r>
       <r>   -15.0983     0.0000     2.0000 </r>
       <r>   -15.0086     0.0000     2.0000 </r>
       <r>   -14.9189     0.0000     2.0000 </r>
       <r>   -14.8291     0.0000     2.0000 </r>
       <r>   -14.7394     0.0000     2.0000 </r>
       <r>   -14.6497     0.0000     2.0000 </r>
       <r>   -14.5599     0.0000     2.0000 </r>
       <r>   -14.4702     0.0000     2.0000 </r>
       <r>   -14.3805     0.0000     2.0000 </r>
       <r>   -14.2907     0.0000     2.0000 </r>
       <r>   -14.2010     0.0000     2.0000 </r>
       <r>   -14.1113     0.0000     2.0000 </r>
       <r>   -14.0215     0.0000     2.0000 </r>
       <r>   -13.9318     0.0000     2.0000 </r>
       <r>   -13.8421     0.0000     2.0000 </r>
       <r>   -13.7523     0.0000     2.0000 </r>
       <r>   -13.6626     0.0000     2.0000 </r>
       <r>   -13.5729     0.0000     2.0000 </r>
       <r>   -13.4831     0.0000     2.0000 </r>
       <r>   -13.3934     0.0000     2.0000 </r>
       <r>   -13.3037     0.0000     2.0000 </r>
       <r>   -13.2139     0.0000     2.0000 </r>
       <r>   -13.1242     0.0000     2.0000 </r>
       <r>   -13.0344     0.0000     2.0000 </r>
       <r>   -12.9447     0.0000     2.0000 </r>
       <r>   -12.8550     0.0000     2.0000 </r>
       <r>   -12.7652     0.0000     2.0000 </r>
       <r>   -12.6755     0.0000     2.0000 </r>
       <r>   -12.5858     0.0000     2.0000 </r>
       <r>   -12.4960     0.0000     2.0000 </r>
       <r>   -12.4063     0.0000     2.0000 </r>
       <r>   -12.3166     0.0000     2.0000 </r>
       <r>   -12.2268     0.0000     2.0000 </r>
       <r>   -12.1371     0.0000     2.0000 </r>
       <r>   -12.0474    -0.0007     1.9999 </r>
       <r>   -11.9576    -0.0075     1.9993 </r>
       <r>   -11.8679    -0.0536     1.9945 </r>
       <r>   -11.7782    -0.2230     1.9744 </r>
       <r>   -11.6884    -0.4267     1.9362 </r>
       <r>   -11.5987     0.2938     1.9625 </r>
       <r>   -11.5090     3.3314     2.2615 </r>
       <r>   -11.4192     7.2917     2.9158 </r>
       <r>   -11.3295     7.8367     3.6190 </r>
       <r>   -11.2398     4.2470     4.0001 </r>
       <r>   -11.1500     0.5961     4.0536 </r>
       <r>   -11.0603    -0.9571     3.9677 </r>
       <r>   -10.9706    -1.1659     3.8631 </r>
       <r>   -10.8808     0.9265     3.9462 </r>
       <r>   -10.7911     7.5230     4.6213 </r>
       <r>   -10.7014    15.7944     6.0386 </r>
       <r>   -10.6116    19.3445     7.7745 </r>
       <r>   -10.5219    18.5459     9.4387 </r>
       <r>   -10.4322    18.4287    11.0923 </r>
       <r>   -10.3424    17.3926    12.6530 </r>
       <r>   -10.2527    11.0462    13.6443 </r>
       <r>   -10.1630     3.4389    13.9529 </r>
       <r>   -10.0732     3.1327    14.2340 </r>
       <r>    -9.9835    12.1680    15.3259 </r>
       <r>    -9.8938    23.9241    17.4727 </r>
       <r>    -9.8040    29.6776    20.1358 </r>
       <r>    -9.7143    29.3239    22.7671 </r>
       <r>    -9.6245    32.3123    25.6666 </r>
       <r>    -9.5348    40.1317    29.2678 </r>
       <r>    -9.4451    40.7468    32.9242 </r>
       <r>    -9.3553    32.6400    35.8531 </r>
       <r>    -9.2656    34.1003    38.9131 </r>
       <r>    -9.1759    54.8542    43.8354 </r>
       <r>    -9.0861    76.0983    50.6640 </r>
       <r>    -8.9964    77.2019    57.5917 </r>
       <r>    -8.9067    68.7545    63.7613 </r>
       <r>    -8.8169    71.8324    70.2071 </r>
       <r>    -8.7272    79.5251    77.3432 </r>
       <r>    -8.6375    70.4118    83.6616 </r>
       <r>    -8.5477    46.9116    87.8712 </r>
       <r>    -8.4580    28.6457    90.4417 </r>
       <r>    -8.3683    22.2541    92.4386 </r>
       <r>    -8.2785    22.3833    94.4472 </r>
       <r>    -8.1888    25.8362    96.7655 </r>
       <r>    -8.0991    33.4978    99.7714 </r>
       <r>    -8.0093    48.1031   104.0879 </r>
       <r>    -7.9196    70.7506   110.4367 </r>
       <r>    -7.8299    93.6649   118.8416 </r>
       <r>    -7.7401   103.2588   128.1075 </r>
       <r>    -7.6504    97.6082   136.8663 </r>
       <r>    -7.5607    83.7984   144.3859 </r>
       <r>    -7.4709    63.8884   150.1188 </r>
       <r>    -7.3812    44.9354   154.1511 </r>
       <r>    -7.2915    38.2197   157.5807 </r>
       <r>    -7.2017    40.8757   161.2486 </r>
       <r>    -7.1120    43.9798   165.1951 </r>
       <r>    -7.0223    49.0012   169.5922 </r>
       <r>    -6.9325    58.1059   174.8063 </r>
       <r>    -6.8428    63.3659   180.4924 </r>
       <r>    -6.7531    58.7237   185.7619 </r>
       <r>    -6.6633    49.3953   190.1943 </r>
       <r>    -6.5736    46.8026   194.3941 </r>
       <r>    -6.4839    58.5157   199.6450 </r>
       <r>    -6.3941    76.7692   206.5338 </r>
       <r>    -6.3044    84.0213   214.0734 </r>
       <r>    -6.2147    77.1717   220.9984 </r>
       <r>    -6.1249    72.8549   227.5359 </r>
       <r>    -6.0352    77.5657   234.4962 </r>
       <r>    -5.9454    72.9255   241.0401 </r>
       <r>    -5.8557    48.4425   245.3871 </r>
       <r>    -5.7660    22.5112   247.4071 </r>
       <r>    -5.6762    17.9589   249.0186 </r>
       <r>    -5.5865    37.8961   252.4192 </r>
       <r>    -5.4968    67.1644   258.4462 </r>
       <r>    -5.4070    88.4505   266.3832 </r>
       <r>    -5.3173    93.3678   274.7615 </r>
       <r>    -5.2276    82.6191   282.1752 </r>
       <r>    -5.1378    68.3618   288.3096 </r>
       <r>    -5.0481    70.6802   294.6521 </r>
       <r>    -4.9584    93.9606   303.0835 </r>
       <r>    -4.8686   113.3145   313.2517 </r>
       <r>    -4.7789   108.1763   322.9588 </r>
       <r>    -4.6892    98.2163   331.7722 </r>
       <r>    -4.5994   112.1062   341.8320 </r>
       <r>    -4.5097   135.5165   353.9924 </r>
       <r>    -4.4200   132.1455   365.8504 </r>
       <r>    -4.3302   102.0169   375.0048 </r>
       <r>    -4.2405    77.2399   381.9359 </r>
       <r>    -4.1508    73.1332   388.4984 </r>
       <r>    -4.0610    75.2163   395.2479 </r>
       <r>    -3.9713    68.2572   401.3729 </r>
       <r>    -3.8816    55.6144   406.3634 </r>
       <r>    -3.7918    45.5176   410.4479 </r>
       <r>    -3.7021    37.1303   413.7797 </r>
       <r>    -3.6124    27.5447   416.2514 </r>
       <r>    -3.5226    19.2136   417.9756 </r>
       <r>    -3.4329    14.5126   419.2778 </r>
       <r>    -3.3432    12.1807   420.3709 </r>
       <r>    -3.2534    10.1001   421.2772 </r>
       <r>    -3.1637     6.5552   421.8654 </r>
       <r>    -3.0740     2.3252   422.0741 </r>
       <r>    -2.9842    -0.1076   422.0644 </r>
       <r>    -2.8945    -0.5382   422.0161 </r>
       <r>    -2.8048    -0.5920   421.9630 </r>
       <r>    -2.7150    -1.3533   421.8415 </r>
       <r>    -2.6253    -2.0232   421.6600 </r>
       <r>    -2.5355     2.0979   421.8482 </r>
       <r>    -2.4458    17.3450   423.4047 </r>
       <r>    -2.3561    40.9136   427.0760 </r>
       <r>    -2.2663    57.1718   432.2063 </r>
       <r>    -2.1766    53.5755   437.0139 </r>
       <r>    -2.0869    35.4761   440.1973 </r>
       <r>    -1.9971    18.5716   441.8638 </r>
       <r>    -1.9074    10.6886   442.8229 </r>
       <r>    -1.8177     7.6107   443.5059 </r>
       <r>    -1.7279     4.8901   443.9447 </r>
       <r>    -1.6382     4.5939   444.3569 </r>
       <r>    -1.5485     7.9996   445.0747 </r>
       <r>    -1.4587    11.3439   446.0927 </r>
       <r>    -1.3690    11.1284   447.0913 </r>
       <r>    -1.2793     6.9167   447.7119 </r>
       <r>    -1.1895     1.7696   447.8707 </r>
       <r>    -1.0998     2.0052   448.0507 </r>
       <r>    -1.0101    11.1482   449.0510 </r>
       <r>    -0.9203    21.6608   450.9948 </r>
       <r>    -0.8306    21.1355   452.8913 </r>
       <r>    -0.7409    12.0443   453.9721 </r>
       <r>    -0.6511     8.7252   454.7551 </r>
       <r>    -0.5614    13.5373   455.9698 </r>
       <r>    -0.4717    17.8676   457.5732 </r>
       <r>    -0.3819    20.3477   459.3990 </r>
       <r>    -0.2922    22.2597   461.3965 </r>
       <r>    -0.2025    18.8348   463.0866 </r>
       <r>    -0.1127     9.7996   463.9660 </r>
       <r>    -0.0230     2.0777   464.1524 </r>
       <r>     0.0667    -0.7314   464.0868 </r>
       <r>     0.1565    -0.6834   464.0255 </r>
       <r>     0.2462    -0.2328   464.0046 </r>
       <r>     0.3359    -0.0452   464.0005 </r>
       <r>     0.4257    -0.0055   464.0000 </r>
       <r>     0.5154    -0.0004   464.0000 </r>
       <r>     0.6051     0.0000   464.0000 </r>
       <r>     0.6949     0.0000   464.0000 </r>
       <r>     0.7846     0.0000   464.0000 </r>
       <r>     0.8744     0.0000   464.0000 </r>
       <r>     0.9641     0.0000   464.0000 </r>
       <r>     1.0538     0.0000   464.0000 </r>
       <r>     1.1436     0.0000   464.0000 </r>
       <r>     1.2333     0.0000   464.0000 </r>
       <r>     1.3230     0.0000   464.0000 </r>
       <r>     1.4128     0.0000   464.0000 </r>
       <r>     1.5025     0.0000   464.0000 </r>
       <r>     1.5922     0.0000   464.0000 </r>
       <r>     1.6820     0.0000   464.0000 </r>
       <r>     1.7717     0.0000   464.0000 </r>
      </set>
     </set>
    </array>
   </total>
  </dos>
 </calculation>
 <structure name="finalpos" >
  <crystal>
   <varray name="basis" >
    <v>      18.00000000       0.00000000       0.00000000 </v>
    <v>       0.00000000      18.00000000       0.00000000 </v>
    <v>       0.00000000       0.00000000      18.00000000 </v>
   </varray>
   <i name="volume">   5832.00000000 </i>
   <varray name="rec_basis" >
    <v>       0.05555556       0.00000000       0.00000000 </v>
    <v>       0.00000000       0.05555556       0.00000000 </v>
    <v>       0.00000000       0.00000000       0.05555556 </v>
   </varray>
  </crystal>
  <varray name="positions" >
   <v>       0.72648271       0.57060687       0.49506528 </v>
   <v>       0.57060719       0.72648273       0.49506508 </v>
   <v>       0.27941558       0.57601636       0.50331415 </v>
   <v>       0.42313775       0.72080839       0.50380585 </v>
   <v>       0.27695118       0.42801027       0.49696353 </v>
   <v>       0.42801022       0.27695128       0.49696370 </v>
   <v>       0.72080818       0.42313745       0.50380617 </v>
   <v>       0.57601633       0.27941562       0.50331447 </v>
   <v>       0.66231613       0.50403793       0.61307215 </v>
   <v>       0.33652378       0.49602839       0.61400477 </v>
   <v>       0.50403799       0.66231631       0.61307193 </v>
   <v>       0.49602819       0.33652389       0.61400496 </v>
   <v>       0.65601444       0.65601435       0.59403794 </v>
   <v>       0.35857888       0.64171433       0.61763545 </v>
   <v>       0.34578848       0.34578860       0.60350164 </v>
   <v>       0.64171413       0.35857885       0.61763589 </v>
   <v>       0.66104499       0.49670196       0.38501655 </v>
   <v>       0.33873477       0.50341750       0.38426184 </v>
   <v>       0.49670225       0.66104489       0.38501642 </v>
   <v>       0.50341752       0.33873465       0.38426196 </v>
   <v>       0.64532555       0.64532528       0.39194908 </v>
   <v>       0.34780475       0.65261458       0.39342394 </v>
   <v>       0.35469263       0.35469257       0.39113143 </v>
   <v>       0.65261460       0.34780447       0.39342415 </v>
   <v>       0.59015375       0.59015397       0.70542916 </v>
   <v>       0.43956363       0.56997236       0.71545592 </v>
   <v>       0.41411734       0.41411761       0.70911259 </v>
   <v>       0.56997205       0.43956386       0.71545610 </v>
   <v>       0.57115152       0.57115128       0.28967683 </v>
   <v>       0.42165691       0.58000248       0.28634625 </v>
   <v>       0.42931981       0.42931968       0.28942432 </v>
   <v>       0.58000259       0.42165672       0.28634626 </v>
   <v>       0.49900206       0.49900217       0.60372428 </v>
   <v>       0.42559800       0.42559804       0.49918742 </v>
   <v>       0.42574205       0.57391118       0.50013437 </v>
   <v>       0.49990300       0.49990291       0.39426593 </v>
   <v>       0.57413967       0.57413958       0.49876105 </v>
   <v>       0.57391110       0.42574199       0.50013451 </v>
   <v>       0.47799830       0.47799864       0.77679670 </v>
  </varray>
  <varray name="selective"  type="logical" >
   <v type="logical" >  T  T  T </v>
   <v type="logical" >  T  T  T </v>
   <v type="logical" >  T  T  T </v>
   <v type="logical" >  T  T  T </v>
   <v type="logical" >  T  T  T </v>
   <v type="logical" >  T  T  T </v>
   <v type="logical" >  T  T  T </v>
   <v type="logical" >  T  T  T </v>
   <v type="logical" >  T  T  T </v>
   <v type="logical" >  T  T  T </v>
   <v type="logical" >  T  T  T </v>
   <v type="logical" >  T  T  T </v>
   <v type="logical" >  T  T  T </v>
   <v type="logical" >  T  T  T </v>
   <v type="logical" >  T  T  T </v>
   <v type="logical" >  T  T  T </v>
   <v type="logical" >  T  T  T </v>
   <v type="logical" >  T  T  T </v>
   <v type="logical" >  T  T  T </v>
   <v type="logical" >  T  T  T </v>
   <v type="logical" >  T  T  T </v>
   <v type="logical" >  T  T  T </v>
   <v type="logical" >  T  T  T </v>
   <v type="logical" >  T  T  T </v>
   <v type="logical" >  T  T  T </v>
   <v type="logical" >  T  T  T </v>
   <v type="logical" >  T  T  T </v>
   <v type="logical" >  T  T  T </v>
   <v type="logical" >  T  T  T </v>
   <v type="logical" >  T  T  T </v>
   <v type="logical" >  T  T  T </v>
   <v type="logical" >  T  T  T </v>
   <v type="logical" >  T  T  T </v>
   <v type="logical" >  T  T  T </v>
   <v type="logical" >  T  T  T </v>
   <v type="logical" >  T  T  T </v>
   <v type="logical" >  T  T  T </v>
   <v type="logical" >  T  T  T </v>
   <v type="logical" >  T  T  T </v>
  </varray>
  <nose>
   <v>      -3.00000000       0.00000000       0.00010000       0.00010000 </v>
  </nose>
 </structure>
</modeling>
