Pt cube particle                        
           1
    18.000000    0.000000    0.000000
     0.000000   18.000000    0.000000
     0.000000    0.000000   18.000000
   Pt   Pd   O 
  32   6   1
Direct configuration=     1
   0.72648437  0.57060922  0.49506623
   0.57060956  0.72648438  0.49506605
   0.27941432  0.57601525  0.50331374
   0.42313994  0.72081014  0.50380470
   0.27694893  0.42800874  0.49696515
   0.42800874  0.27694901  0.49696529
   0.72080995  0.42313965  0.50380505
   0.57601516  0.27941435  0.50331404
   0.66231633  0.50403826  0.61307121
   0.33652407  0.49602875  0.61400431
   0.50403831  0.66231645  0.61307097
   0.49602855  0.33652421  0.61400449
   0.65601429  0.65601423  0.59403966
   0.35857903  0.64171542  0.61763218
   0.34578792  0.34578808  0.60350228
   0.64171522  0.35857897  0.61763267
   0.66104536  0.49670432  0.38501745
   0.33873405  0.50341549  0.38426328
   0.49670459  0.66104529  0.38501732
   0.50341552  0.33873394  0.38426339
   0.64532816  0.64532787  0.39195030
   0.34780704  0.65261278  0.39342497
   0.35468988  0.35468982  0.39113336
   0.65261278  0.34780678  0.39342512
   0.59015220  0.59015241  0.70542871
   0.43956129  0.56997165  0.71545317
   0.41411740  0.41411767  0.70911205
   0.56997134  0.43956149  0.71545339
   0.57115446  0.57115425  0.28967771
   0.42165920  0.57999970  0.28634908
   0.42931653  0.42931640  0.28942505
   0.57999982  0.42165896  0.28634917
   0.49900258  0.49900272  0.60372206
   0.42559653  0.42559658  0.49918789
   0.42574256  0.57391110  0.50013323
   0.49990285  0.49990276  0.39426576
   0.57414137  0.57414129  0.49876042
   0.57391103  0.42574251  0.50013338
   0.47799877  0.47799912  0.77679574
Direct configuration=     2
   0.72648271  0.57060687  0.49506528
   0.57060719  0.72648273  0.49506508
   0.27941558  0.57601636  0.50331415
   0.42313775  0.72080839  0.50380585
   0.27695118  0.42801027  0.49696353
   0.42801022  0.27695128  0.49696370
   0.72080818  0.42313745  0.50380617
   0.57601633  0.27941562  0.50331447
   0.66231613  0.50403793  0.61307215
   0.33652378  0.49602839  0.61400477
   0.50403799  0.66231631  0.61307193
   0.49602819  0.33652389  0.61400496
   0.65601444  0.65601435  0.59403794
   0.35857888  0.64171433  0.61763545
   0.34578848  0.34578860  0.60350164
   0.64171413  0.35857885  0.61763589
   0.66104499  0.49670196  0.38501655
   0.33873477  0.50341750  0.38426184
   0.49670225  0.66104489  0.38501642
   0.50341752  0.33873465  0.38426196
   0.64532555  0.64532528  0.39194908
   0.34780475  0.65261458  0.39342394
   0.35469263  0.35469257  0.39113143
   0.65261460  0.34780447  0.39342415
   0.59015375  0.59015397  0.70542916
   0.43956363  0.56997236  0.71545592
   0.41411734  0.41411761  0.70911259
   0.56997205  0.43956386  0.71545610
   0.57115152  0.57115128  0.28967683
   0.42165691  0.58000248  0.28634625
   0.42931981  0.42931968  0.28942432
   0.58000259  0.42165672  0.28634626
   0.49900206  0.49900217  0.60372428
   0.42559800  0.42559804  0.49918742
   0.42574205  0.57391118  0.50013437
   0.49990300  0.49990291  0.39426593
   0.57413967  0.57413958  0.49876105
   0.57391110  0.42574199  0.50013451
   0.47799830  0.47799864  0.77679670
