unknown system                          
   1.00000000000000     
     4.000000    0.000000    0.000000
     0.000000    4.000000    0.000000
     0.000000    0.000000    4.000000
   Sr   Fe   O 
     1     1     3
Direct
  0.500000  0.500000  0.500000
  0.000000  0.000000  0.000000
  0.500000  0.000000  0.000000
  0.000000  0.500000  0.000000
  0.000000  0.000000  0.500000
 
   36   36   36
  1309.9      1249.3      1080.0      837.11      571.05      334.17      164.25      72.086      40.599      37.362    
  43.752      59.876      92.132      147.82      228.36      325.26      420.14      490.00      515.75      490.00    
  420.14      325.26      228.36      147.82      92.132      59.876      43.752      37.362      40.599      72.086    
  164.25      334.17      571.05      837.11      1080.0      1249.3      1249.3      1190.7      1027.3      793.56    
  538.78      313.42      153.24      67.588      39.078      36.227      42.404      57.800      88.333      141.17    
  217.92      310.62      401.65      468.81      493.60      468.81      401.65      310.62      217.92      141.17    
  88.333      57.800      42.404      36.227      39.078      67.588      153.24      313.42      538.78      793.56    
  1027.3      1190.7      1080.0      1027.3      880.91      673.61      450.86      257.72      124.29      56.114    
  35.150      33.085      38.666      52.148      78.039      123.02      189.16      269.94      349.97      409.36    
  431.34      409.36      349.97      269.94      189.16      123.02      78.039      52.148      38.666      33.085    
  35.150      56.114      124.29      257.72      450.86      673.61      880.91      1027.3      837.11      793.56    
  673.61      506.40      331.00      184.12      87.749      42.480      30.094      28.620      33.328      44.332    
  64.084      98.175      149.11      212.42      276.03      323.68      341.39      323.68      276.03      212.42    
  149.11      98.175      64.084      44.332      33.328      28.620      30.094      42.480      87.749      184.12    
  331.00      506.40      673.61      793.56      571.05      538.78      450.86      331.00      209.68      113.37    
  55.225      31.278      24.681      23.692      27.390      35.820      49.765      72.673      107.21      151.02    
  195.82      229.81      242.52      229.81      195.82      151.02      107.21      72.673      49.765      35.820    
  27.390      23.692      24.681      31.278      55.225      113.37      209.68      331.00      450.86      538.78    
  334.17      313.42      257.72      184.12      113.37      61.594      34.049      23.838      19.651      19.060    
  21.742      27.713      37.292      51.343      71.831      98.102      125.45      146.49      154.42      146.49    
  125.45      98.102      71.831      51.343      37.292      27.713      21.742      19.060      19.651      23.838    
  34.049      61.594      113.37      184.12      257.72      313.42      164.25      153.24      124.29      87.749    
  55.225      34.049      23.832      18.378      15.596      15.208      16.959      20.851      27.083      35.770    
  46.962      60.696      74.983      86.062      90.263      86.062      74.983      60.696      46.962      35.770    
  27.083      20.851      16.959      15.208      15.596      18.378      23.832      34.049      55.225      87.749    
  124.29      153.24      72.086      67.588      56.114      42.480      31.278      23.838      18.378      14.688    
  12.742      12.322      13.266      15.564      19.309      24.541      31.026      38.108      44.897      50.010    
  51.932      50.010      44.897      38.108      31.026      24.541      19.309      15.564      13.266      12.322    
  12.742      14.688      18.378      23.838      31.278      42.480      56.114      67.588      40.599      39.078    
  35.150      30.094      24.681      19.651      15.596      12.742      11.049      10.381      10.634      11.779    
  13.830      16.761      20.399      24.341      27.956      30.520      31.449      30.520      27.956      24.341    
  20.399      16.761      13.830      11.779      10.634      10.381      11.049      12.742      15.596      19.651    
  24.681      30.094      35.150      39.078      37.362      36.227      33.085      28.620      23.692      19.060    
  15.208      12.322      10.381      9.2802      8.9187      9.2316      10.172      11.671      13.583      15.662    
  17.560      18.900      19.385      18.900      17.560      15.662      13.583      11.671      10.172      9.2316    
  8.9187      9.2802      10.381      12.322      15.208      19.060      23.692      28.620      33.085      36.227    
  43.752      42.404      38.666      33.328      27.390      21.742      16.959      13.266      10.634      8.9187    
  7.9615      7.6330      7.8288      8.4457      9.3558      10.391      11.349      12.027      12.272      12.027    
  11.349      10.391      9.3558      8.4457      7.8288      7.6330      7.9615      8.9187      10.634      13.266    
  16.959      21.742      27.390      33.328      38.666      42.404      59.876      57.800      52.148      44.332    
  35.820      27.713      20.851      15.564      11.779      9.2316      7.6330      6.7474      6.3968      6.4418    
  6.7567      7.2107      7.6660      7.9976      8.1184      7.9976      7.6660      7.2107      6.7567      6.4418    
  6.3968      6.7474      7.6330      9.2316      11.779      15.564      20.851      27.713      35.820      44.332    
  52.148      57.800      92.132      88.333      78.039      64.084      49.765      37.292      27.083      19.309    
  13.830      10.172      7.8288      6.3968      5.5921      5.2223      5.1498      5.2558      5.4265      5.5671    
  5.6201      5.5671      5.4265      5.2558      5.1498      5.2223      5.5921      6.3968      7.8288      10.172    
  13.830      19.309      27.083      37.292      49.765      64.084      78.039      88.333      147.82      141.17    
  123.02      98.175      72.673      51.343      35.770      24.541      16.761      11.671      8.4457      6.4418    
  5.2223      4.5163      4.1593      4.0297      4.0180      4.0392      4.0499      4.0392      4.0180      4.0297    
  4.1593      4.5163      5.2223      6.4418      8.4457      11.671      16.761      24.541      35.770      51.343    
  72.673      98.175      123.02      141.17      228.36      217.92      189.16      149.11      107.21      71.831    
  46.962      31.026      20.399      13.583      9.3558      6.7567      5.1498      4.1593      3.5801      3.2792    
  3.1416      3.0820      3.0641      3.0820      3.1416      3.2792      3.5801      4.1593      5.1498      6.7567    
  9.3558      13.583      20.399      31.026      46.962      71.831      107.21      149.11      189.16      217.92    
  325.26      310.62      269.94      212.42      151.02      98.102      60.696      38.108      24.341      15.662    
  10.391      7.2107      5.2558      4.0297      3.2792      2.8555      2.6335      2.5216      2.4852      2.5216    
  2.6335      2.8555      3.2792      4.0297      5.2558      7.2107      10.391      15.662      24.341      38.108    
  60.696      98.102      151.02      212.42      269.94      310.62      420.14      401.65      349.97      276.03    
  195.82      125.45      74.983      44.897      27.956      17.560      11.349      7.6660      5.4265      4.0180    
  3.1416      2.6335      2.3580      2.2146      2.1673      2.2146      2.3580      2.6335      3.1416      4.0180    
  5.4265      7.6660      11.349      17.560      27.956      44.897      74.983      125.45      195.82      276.03    
  349.97      401.65      490.00      468.81      409.36      323.68      229.81      146.49      86.062      50.010    
  30.520      18.900      12.027      7.9976      5.5671      4.0392      3.0820      2.5216      2.2146      2.0536    
  2.0003      2.0536      2.2146      2.5216      3.0820      4.0392      5.5671      7.9976      12.027      18.900    
  30.520      50.010      86.062      146.49      229.81      323.68      409.36      468.81      515.75      493.60    
  431.34      341.39      242.52      154.42      90.263      51.932      31.449      19.385      12.272      8.1184    
  5.6201      4.0499      3.0641      2.4852      2.1673      2.0003      1.9451      2.0003      2.1673      2.4852    
  3.0641      4.0499      5.6201      8.1184      12.272      19.385      31.449      51.932      90.263      154.42    
  242.52      341.39      431.34      493.60      490.00      468.81      409.36      323.68      229.81      146.49    
  86.062      50.010      30.520      18.900      12.027      7.9976      5.5671      4.0392      3.0820      2.5216    
  2.2146      2.0536      2.0003      2.0536      2.2146      2.5216      3.0820      4.0392      5.5671      7.9976    
  12.027      18.900      30.520      50.010      86.062      146.49      229.81      323.68      409.36      468.81    
  420.14      401.65      349.97      276.03      195.82      125.45      74.983      44.897      27.956      17.560    
  11.349      7.6660      5.4265      4.0180      3.1416      2.6335      2.3580      2.2146      2.1673      2.2146    
  2.3580      2.6335      3.1416      4.0180      5.4265      7.6660      11.349      17.560      27.956      44.897    
  74.983      125.45      195.82      276.03      349.97      401.65      325.26      310.62      269.94      212.42    
  151.02      98.102      60.696      38.108      24.341      15.662      10.391      7.2107      5.2558      4.0297    
  3.2792      2.8555      2.6335      2.5216      2.4852      2.5216      2.6335      2.8555      3.2792      4.0297    
  5.2558      7.2107      10.391      15.662      24.341      38.108      60.696      98.102      151.02      212.42    
  269.94      310.62      228.36      217.92      189.16      149.11      107.21      71.831      46.962      31.026    
  20.399      13.583      9.3558      6.7567      5.1498      4.1593      3.5801      3.2792      3.1416      3.0820    
  3.0641      3.0820      3.1416      3.2792      3.5801      4.1593      5.1498      6.7567      9.3558      13.583    
  20.399      31.026      46.962      71.831      107.21      149.11      189.16      217.92      147.82      141.17    
  123.02      98.175      72.673      51.343      35.770      24.541      16.761      11.671      8.4457      6.4418    
  5.2223      4.5163      4.1593      4.0297      4.0180      4.0392      4.0499      4.0392      4.0180      4.0297    
  4.1593      4.5163      5.2223      6.4418      8.4457      11.671      16.761      24.541      35.770      51.343    
  72.673      98.175      123.02      141.17      92.132      88.333      78.039      64.084      49.765      37.292    
  27.083      19.309      13.830      10.172      7.8288      6.3968      5.5921      5.2223      5.1498      5.2558    
  5.4265      5.5671      5.6201      5.5671      5.4265      5.2558      5.1498      5.2223      5.5921      6.3968    
  7.8288      10.172      13.830      19.309      27.083      37.292      49.765      64.084      78.039      88.333    
  59.876      57.800      52.148      44.332      35.820      27.713      20.851      15.564      11.779      9.2316    
  7.6330      6.7474      6.3968      6.4418      6.7567      7.2107      7.6660      7.9976      8.1184      7.9976    
  7.6660      7.2107      6.7567      6.4418      6.3968      6.7474      7.6330      9.2316      11.779      15.564    
  20.851      27.713      35.820      44.332      52.148      57.800      43.752      42.404      38.666      33.328    
  27.390      21.742      16.959      13.266      10.634      8.9187      7.9615      7.6330      7.8288      8.4457    
  9.3558      10.391      11.349      12.027      12.272      12.027      11.349      10.391      9.3558      8.4457    
  7.8288      7.6330      7.9615      8.9187      10.634      13.266      16.959      21.742      27.390      33.328    
  38.666      42.404      37.362      36.227      33.085      28.620      23.692      19.060      15.208      12.322    
  10.381      9.2802      8.9187      9.2316      10.172      11.671      13.583      15.662      17.560      18.900    
  19.385      18.900      17.560      15.662      13.583      11.671      10.172      9.2316      8.9187      9.2802    
  10.381      12.322      15.208      19.060      23.692      28.620      33.085      36.227      40.599      39.078    
  35.150      30.094      24.681      19.651      15.596      12.742      11.049      10.381      10.634      11.779    
  13.830      16.761      20.399      24.341      27.956      30.520      31.449      30.520      27.956      24.341    
  20.399      16.761      13.830      11.779      10.634      10.381      11.049      12.742      15.596      19.651    
  24.681      30.094      35.150      39.078      72.086      67.588      56.114      42.480      31.278      23.838    
  18.378      14.688      12.742      12.322      13.266      15.564      19.309      24.541      31.026      38.108    
  44.897      50.010      51.932      50.010      44.897      38.108      31.026      24.541      19.309      15.564    
  13.266      12.322      12.742      14.688      18.378      23.838      31.278      42.480      56.114      67.588    
  164.25      153.24      124.29      87.749      55.225      34.049      23.832      18.378      15.596      15.208    
  16.959      20.851      27.083      35.770      46.962      60.696      74.983      86.062      90.263      86.062    
  74.983      60.696      46.962      35.770      27.083      20.851      16.959      15.208      15.596      18.378    
  23.832      34.049      55.225      87.749      124.29      153.24      334.17      313.42      257.72      184.12    
  113.37      61.594      34.049      23.838      19.651      19.060      21.742      27.713      37.292      51.343    
  71.831      98.102      125.45      146.49      154.42      146.49      125.45      98.102      71.831      51.343    
  37.292      27.713      21.742      19.060      19.651      23.838      34.049      61.594      113.37      184.12    
  257.72      313.42      571.05      538.78      450.86      331.00      209.68      113.37      55.225      31.278    
  24.681      23.692      27.390      35.820      49.765      72.673      107.21      151.02      195.82      229.81    
  242.52      229.81      195.82      151.02      107.21      72.673      49.765      35.820      27.390      23.692    
  24.681      31.278      55.225      113.37      209.68      331.00      450.86      538.78      837.11      793.56    
  673.61      506.40      331.00      184.12      87.749      42.480      30.094      28.620      33.328      44.332    
  64.084      98.175      149.11      212.42      276.03      323.68      341.39      323.68      276.03      212.42    
  149.11      98.175      64.084      44.332      33.328      28.620      30.094      42.480      87.749      184.12    
  331.00      506.40      673.61      793.56      1080.0      1027.3      880.91      673.61      450.86      257.72    
  124.29      56.114      35.150      33.085      38.666      52.148      78.039      123.02      189.16      269.94    
  349.97      409.36      431.34      409.36      349.97      269.94      189.16      123.02      78.039      52.148    
  38.666      33.085      35.150      56.114      124.29      257.72      450.86      673.61      880.91      1027.3    
  1249.3      1190.7      1027.3      793.56      538.78      313.42      153.24      67.588      39.078      36.227    
  42.404      57.800      88.333      141.17      217.92      310.62      401.65      468.81      493.60      468.81    
  401.65      310.62      217.92      141.17      88.333      57.800      42.404      36.227      39.078      67.588    
  153.24      313.42      538.78      793.56      1027.3      1190.7      1249.3      1190.7      1027.3      793.56    
  538.78      313.42      153.24      67.588      39.078      36.227      42.404      57.800      88.333      141.17    
  217.92      310.62      401.65      468.81      493.60      468.81      401.65      310.62      217.92      141.17    
  88.333      57.800      42.404      36.227      39.078      67.588      153.24      313.42      538.78      793.56    
  1027.3      1190.7      1190.7      1134.1      976.49      751.78      507.99      293.78      142.92      63.438    
  37.669      35.137      41.109      55.824      84.724      134.83      207.92      296.52      383.80      448.31    
  472.15      448.31      383.80      296.52      207.92      134.83      84.724      55.824      41.109      35.137    
  37.669      63.438      142.92      293.78      507.99      751.78      976.49      1134.1      1027.3      976.49    
  835.67      636.86      424.25      241.13      115.87      52.880      34.012      32.117      37.514      50.439    
  74.951      117.54      180.40      257.44      333.99      390.90      411.99      390.90      333.99      257.44    
  180.40      117.54      74.951      50.439      37.514      32.117      34.012      52.880      115.87      241.13    
  424.25      636.86      835.67      976.49      793.56      751.78      636.86      477.16      310.45      171.83    
  81.881      40.385      29.212      27.824      32.378      42.969      61.712      93.937      142.20      202.38    
  263.00      308.50      325.43      308.50      263.00      202.38      142.20      93.937      61.712      42.969    
  32.378      27.824      29.212      40.385      81.881      171.83      310.45      477.16      636.86      751.78    
  538.78      507.99      424.25      310.45      195.86      105.63      51.864      30.139      24.001      23.081    
  26.660      34.781      48.115      69.771      102.39      143.86      186.38      218.68      230.77      218.68    
  186.38      143.86      102.39      69.771      48.115      34.781      26.660      23.081      24.001      30.139    
  51.864      105.63      195.86      310.45      424.25      507.99      313.42      293.78      241.13      171.83    
  105.63      57.665      32.527      23.160      19.158      18.615      21.213      26.969      36.190      49.571    
  68.914      93.694      119.52      139.41      146.92      139.41      119.52      93.694      68.914      49.571    
  36.190      26.969      21.213      18.615      19.158      23.160      32.527      57.665      105.63      171.83    
  241.13      293.78      153.24      142.92      115.87      81.881      51.864      32.527      23.140      17.908    
  15.250      14.893      16.591      20.347      26.352      34.716      45.387      58.363      71.824      82.259    
  86.215      82.259      71.824      58.363      45.387      34.716      26.352      20.347      16.591      14.893    
  15.250      17.908      23.140      32.527      51.864      81.881      115.87      142.92      67.588      63.438    
  52.880      40.385      30.139      23.160      17.908      14.363      12.496      12.098      13.014      15.235    
  18.850      23.894      30.143      36.948      43.409      48.249      50.064      48.249      43.409      36.948    
  30.143      23.894      18.850      15.235      13.014      12.098      12.496      14.363      17.908      23.160    
  30.139      40.385      52.880      63.438      39.078      37.669      34.012      29.212      24.001      19.158    
  15.250      12.496      10.859      10.212      10.457      11.565      13.550      16.383      19.896      23.699    
  27.183      29.654      30.549      29.654      27.183      23.699      19.896      16.383      13.550      11.565    
  10.457      10.212      10.859      12.496      15.250      19.158      24.001      29.212      34.012      37.669    
  36.227      35.137      32.117      27.824      23.081      18.615      14.893      12.098      10.212      9.1393    
  8.7852      9.0876      10.000      11.454      13.307      15.320      17.156      18.452      18.920      18.452    
  17.156      15.320      13.307      11.454      10.000      9.0876      8.7852      9.1393      10.212      12.098    
  14.893      18.615      23.081      27.824      32.117      35.137      42.404      41.109      37.514      32.378    
  26.660      21.213      16.591      13.014      10.457      8.7852      7.8504      7.5286      7.7187      8.3196    
  9.2057      10.213      11.144      11.803      12.040      11.803      11.144      10.213      9.2057      8.3196    
  7.7187      7.5286      7.8504      8.7852      10.457      13.014      16.591      21.213      26.660      32.378    
  37.514      41.109      57.800      55.824      50.439      42.969      34.781      26.969      20.347      15.235    
  11.565      9.0876      7.5286      6.6633      6.3207      6.3654      6.6743      7.1187      7.5640      7.8881    
  8.0062      7.8881      7.5640      7.1187      6.6743      6.3654      6.3207      6.6633      7.5286      9.0876    
  11.565      15.235      20.347      26.969      34.781      42.969      50.439      55.824      88.333      84.724    
  74.951      61.712      48.115      36.190      26.352      18.850      13.550      10.000      7.7187      6.3207    
  5.5343      5.1738      5.1049      5.2106      5.3792      5.5179      5.5701      5.5179      5.3792      5.2106    
  5.1049      5.1738      5.5343      6.3207      7.7187      10.000      13.550      18.850      26.352      36.190    
  48.115      61.712      74.951      84.724      141.17      134.83      117.54      93.937      69.771      49.571    
  34.716      23.894      16.383      11.454      8.3196      6.3654      5.1738      4.4844      4.1371      4.0125    
  4.0030      4.0253      4.0363      4.0253      4.0030      4.0125      4.1371      4.4844      5.1738      6.3654    
  8.3196      11.454      16.383      23.894      34.716      49.571      69.771      93.937      117.54      134.83    
  217.92      207.92      180.40      142.20      102.39      68.914      45.387      30.143      19.896      13.307    
  9.2057      6.6743      5.1049      4.1371      3.5721      3.2797      3.1471      3.0905      3.0737      3.0905    
  3.1471      3.2797      3.5721      4.1371      5.1049      6.6743      9.2057      13.307      19.896      30.143    
  45.387      68.914      102.39      142.20      180.40      207.92      310.62      296.52      257.44      202.38    
  143.86      93.694      58.363      36.948      23.699      15.320      10.213      7.1187      5.2106      4.0125    
  3.2797      2.8671      2.6518      2.5438      2.5089      2.5438      2.6518      2.8671      3.2797      4.0125    
  5.2106      7.1187      10.213      15.320      23.699      36.948      58.363      93.694      143.86      202.38    
  257.44      296.52      401.65      383.80      333.99      263.00      186.38      119.52      71.824      43.409    
  27.183      17.156      11.144      7.5640      5.3792      4.0030      3.1471      2.6518      2.3838      2.2448    
  2.1991      2.2448      2.3838      2.6518      3.1471      4.0030      5.3792      7.5640      11.144      17.156    
  27.183      43.409      71.824      119.52      186.38      263.00      333.99      383.80      468.81      448.31    
  390.90      308.50      218.68      139.41      82.259      48.249      29.654      18.452      11.803      7.8881    
  5.5179      4.0253      3.0905      2.5438      2.2448      2.0883      2.0367      2.0883      2.2448      2.5438    
  3.0905      4.0253      5.5179      7.8881      11.803      18.452      29.654      48.249      82.259      139.41    
  218.68      308.50      390.90      448.31      493.60      472.15      411.99      325.43      230.77      146.92    
  86.215      50.064      30.549      18.920      12.040      8.0062      5.5701      4.0363      3.0737      2.5089    
  2.1991      2.0367      1.9831      2.0367      2.1991      2.5089      3.0737      4.0363      5.5701      8.0062    
  12.040      18.920      30.549      50.064      86.215      146.92      230.77      325.43      411.99      472.15    
  468.81      448.31      390.90      308.50      218.68      139.41      82.259      48.249      29.654      18.452    
  11.803      7.8881      5.5179      4.0253      3.0905      2.5438      2.2448      2.0883      2.0367      2.0883    
  2.2448      2.5438      3.0905      4.0253      5.5179      7.8881      11.803      18.452      29.654      48.249    
  82.259      139.41      218.68      308.50      390.90      448.31      401.65      383.80      333.99      263.00    
  186.38      119.52      71.824      43.409      27.183      17.156      11.144      7.5640      5.3792      4.0030    
  3.1471      2.6518      2.3838      2.2448      2.1991      2.2448      2.3838      2.6518      3.1471      4.0030    
  5.3792      7.5640      11.144      17.156      27.183      43.409      71.824      119.52      186.38      263.00    
  333.99      383.80      310.62      296.52      257.44      202.38      143.86      93.694      58.363      36.948    
  23.699      15.320      10.213      7.1187      5.2106      4.0125      3.2797      2.8671      2.6518      2.5438    
  2.5089      2.5438      2.6518      2.8671      3.2797      4.0125      5.2106      7.1187      10.213      15.320    
  23.699      36.948      58.363      93.694      143.86      202.38      257.44      296.52      217.92      207.92    
  180.40      142.20      102.39      68.914      45.387      30.143      19.896      13.307      9.2057      6.6743    
  5.1049      4.1371      3.5721      3.2797      3.1471      3.0905      3.0737      3.0905      3.1471      3.2797    
  3.5721      4.1371      5.1049      6.6743      9.2057      13.307      19.896      30.143      45.387      68.914    
  102.39      142.20      180.40      207.92      141.17      134.83      117.54      93.937      69.771      49.571    
  34.716      23.894      16.383      11.454      8.3196      6.3654      5.1738      4.4844      4.1371      4.0125    
  4.0030      4.0253      4.0363      4.0253      4.0030      4.0125      4.1371      4.4844      5.1738      6.3654    
  8.3196      11.454      16.383      23.894      34.716      49.571      69.771      93.937      117.54      134.83    
  88.333      84.724      74.951      61.712      48.115      36.190      26.352      18.850      13.550      10.000    
  7.7187      6.3207      5.5343      5.1738      5.1049      5.2106      5.3792      5.5179      5.5701      5.5179    
  5.3792      5.2106      5.1049      5.1738      5.5343      6.3207      7.7187      10.000      13.550      18.850    
  26.352      36.190      48.115      61.712      74.951      84.724      57.800      55.824      50.439      42.969    
  34.781      26.969      20.347      15.235      11.565      9.0876      7.5286      6.6633      6.3207      6.3654    
  6.6743      7.1187      7.5640      7.8881      8.0062      7.8881      7.5640      7.1187      6.6743      6.3654    
  6.3207      6.6633      7.5286      9.0876      11.565      15.235      20.347      26.969      34.781      42.969    
  50.439      55.824      42.404      41.109      37.514      32.378      26.660      21.213      16.591      13.014    
  10.457      8.7852      7.8504      7.5286      7.7187      8.3196      9.2057      10.213      11.144      11.803    
  12.040      11.803      11.144      10.213      9.2057      8.3196      7.7187      7.5286      7.8504      8.7852    
  10.457      13.014      16.591      21.213      26.660      32.378      37.514      41.109      36.227      35.137    
  32.117      27.824      23.081      18.615      14.893      12.098      10.212      9.1393      8.7852      9.0876    
  10.000      11.454      13.307      15.320      17.156      18.452      18.920      18.452      17.156      15.320    
  13.307      11.454      10.000      9.0876      8.7852      9.1393      10.212      12.098      14.893      18.615    
  23.081      27.824      32.117      35.137      39.078      37.669      34.012      29.212      24.001      19.158    
  15.250      12.496      10.859      10.212      10.457      11.565      13.550      16.383      19.896      23.699    
  27.183      29.654      30.549      29.654      27.183      23.699      19.896      16.383      13.550      11.565    
  10.457      10.212      10.859      12.496      15.250      19.158      24.001      29.212      34.012      37.669    
  67.588      63.438      52.880      40.385      30.139      23.160      17.908      14.363      12.496      12.098    
  13.014      15.235      18.850      23.894      30.143      36.948      43.409      48.249      50.064      48.249    
  43.409      36.948      30.143      23.894      18.850      15.235      13.014      12.098      12.496      14.363    
  17.908      23.160      30.139      40.385      52.880      63.438      153.24      142.92      115.87      81.881    
  51.864      32.527      23.140      17.908      15.250      14.893      16.591      20.347      26.352      34.716    
  45.387      58.363      71.824      82.259      86.215      82.259      71.824      58.363      45.387      34.716    
  26.352      20.347      16.591      14.893      15.250      17.908      23.140      32.527      51.864      81.881    
  115.87      142.92      313.42      293.78      241.13      171.83      105.63      57.665      32.527      23.160    
  19.158      18.615      21.213      26.969      36.190      49.571      68.914      93.694      119.52      139.41    
  146.92      139.41      119.52      93.694      68.914      49.571      36.190      26.969      21.213      18.615    