unknown system                          
   1.00000000000000     
     4.000000    0.000000    0.000000
     0.000000    4.000000    0.000000
     0.000000    0.000000    4.000000
   Sr   Fe   O 
     1     1     3
Direct
  0.500000  0.500000  0.500000
  0.000000  0.000000  0.000000
  0.500000  0.000000  0.000000
  0.000000  0.500000  0.000000
  0.000000  0.000000  0.500000
 
   36   36   36
 0.13099036192E+04 0.12493246030E+04 0.10800164102E+04 0.83710953817E+03 0.57104605020E+03
 0.33417362985E+03 0.16425164237E+03 0.72085651356E+02 0.40599185924E+02 0.37362088936E+02
 0.43751557606E+02 0.59875796287E+02 0.92131808007E+02 0.14781533966E+03 0.22836204460E+03
 0.32526248590E+03 0.42013959451E+03 0.48999874058E+03 0.51575288157E+03 0.48999874058E+03
 0.42013959451E+03 0.32526248590E+03 0.22836204460E+03 0.14781533966E+03 0.92131808007E+02
 0.59875796287E+02 0.43751557606E+02 0.37362088936E+02 0.40599185924E+02 0.72085651356E+02
 0.16425164237E+03 0.33417362985E+03 0.57104605020E+03 0.83710953817E+03 0.10800164102E+04
 0.12493246030E+04 0.12493246030E+04 0.11907424767E+04 0.10272927333E+04 0.79356081210E+03
 0.53877516336E+03 0.31342118407E+03 0.15323606571E+03 0.67587719510E+02 0.39077723771E+02
 0.36227240224E+02 0.42404416637E+02 0.57799610086E+02 0.88333055137E+02 0.14116766381E+03
 0.21792141039E+03 0.31061790827E+03 0.40165082540E+03 0.46881421187E+03 0.49359947456E+03
 0.46881421187E+03 0.40165082540E+03 0.31061790827E+03 0.21792141039E+03 0.14116766381E+03
 0.88333055137E+02 0.57799610086E+02 0.42404416637E+02 0.36227240224E+02 0.39077723771E+02
 0.67587719510E+02 0.15323606571E+03 0.31342118407E+03 0.53877516336E+03 0.79356081210E+03
 0.10272927333E+04 0.11907424767E+04 0.10800164102E+04 0.10272927333E+04 0.88091412647E+03
 0.67360959803E+03 0.45085566273E+03 0.25771768172E+03 0.12429005579E+03 0.56114140559E+02
 0.35150468597E+02 0.33084787790E+02 0.38665503416E+02 0.52147597185E+02 0.78038785059E+02
 0.12302217266E+03 0.18915761521E+03 0.26993776407E+03 0.34996564597E+03 0.40935679413E+03
 0.43133819331E+03 0.40935679413E+03 0.34996564597E+03 0.26993776407E+03 0.18915761521E+03
 0.12302217266E+03 0.78038785059E+02 0.52147597185E+02 0.38665503416E+02 0.33084787790E+02
 0.35150468597E+02 0.56114140559E+02 0.12429005579E+03 0.25771768172E+03 0.45085566273E+03
 0.67360959803E+03 0.88091412647E+03 0.10272927333E+04 0.83710953817E+03 0.79356081210E+03
 0.67360959803E+03 0.50639515310E+03 0.33100487150E+03 0.18411858306E+03 0.87748738164E+02
 0.42479844076E+02 0.30093739336E+02 0.28620135945E+02 0.33327848763E+02 0.44332338029E+02
 0.64083509671E+02 0.98175153669E+02 0.14911036136E+03 0.21242446921E+03 0.27602887790E+03
 0.32367500480E+03 0.34139180242E+03 0.32367500480E+03 0.27602887790E+03 0.21242446921E+03
 0.14911036136E+03 0.98175153669E+02 0.64083509671E+02 0.44332338029E+02 0.33327848763E+02
 0.28620135945E+02 0.30093739336E+02 0.42479844076E+02 0.87748738164E+02 0.18411858306E+03
 0.33100487150E+03 0.50639515310E+03 0.67360959803E+03 0.79356081210E+03 0.57104605020E+03
 0.53877516336E+03 0.45085566273E+03 0.33100487150E+03 0.20968019775E+03 0.11336770510E+03
 0.55224903828E+02 0.31277941307E+02 0.24680892305E+02 0.23692121478E+02 0.27390163848E+02
 0.35820425465E+02 0.49765072325E+02 0.72672913738E+02 0.10720680153E+03 0.15101591890E+03
 0.19582310272E+03 0.22980553210E+03 0.24252011859E+03 0.22980553210E+03 0.19582310272E+03
 0.15101591890E+03 0.10720680153E+03 0.72672913738E+02 0.49765072325E+02 0.35820425465E+02
 0.27390163848E+02 0.23692121478E+02 0.24680892305E+02 0.31277941307E+02 0.55224903828E+02
 0.11336770510E+03 0.20968019775E+03 0.33100487150E+03 0.45085566273E+03 0.53877516336E+03
 0.33417362985E+03 0.31342118407E+03 0.25771768172E+03 0.18411858306E+03 0.11336770510E+03
 0.61593710715E+02 0.34049150140E+02 0.23838464229E+02 0.19650860553E+02 0.19059691479E+02
 0.21742190399E+02 0.27713332386E+02 0.37291597868E+02 0.51343342638E+02 0.71831408921E+02
 0.98101612643E+02 0.12545308969E+03 0.14648826904E+03 0.15441613068E+03 0.14648826904E+03
 0.12545308969E+03 0.98101612643E+02 0.71831408921E+02 0.51343342638E+02 0.37291597868E+02
 0.27713332386E+02 0.21742190399E+02 0.19059691479E+02 0.19650860553E+02 0.23838464229E+02
 0.34049150140E+02 0.61593710715E+02 0.11336770510E+03 0.18411858306E+03 0.25771768172E+03
 0.31342118407E+03 0.16425164237E+03 0.15323606571E+03 0.12429005579E+03 0.87748738164E+02
 0.55224903828E+02 0.34049150140E+02 0.23831981988E+02 0.18378355266E+02 0.15595696126E+02
 0.15207519979E+02 0.16959185327E+02 0.20850932404E+02 0.27082618989E+02 0.35769617511E+02
 0.46961539255E+02 0.60696441866E+02 0.74983391386E+02 0.86062479116E+02 0.90262513043E+02
 0.86062479116E+02 0.74983391386E+02 0.60696441866E+02 0.46961539255E+02 0.35769617511E+02
 0.27082618989E+02 0.20850932404E+02 0.16959185327E+02 0.15207519979E+02 0.15595696126E+02
 0.18378355266E+02 0.23831981988E+02 0.34049150140E+02 0.55224903828E+02 0.87748738164E+02
 0.12429005579E+03 0.15323606571E+03 0.72085651356E+02 0.67587719510E+02 0.56114140559E+02
 0.42479844076E+02 0.31277941307E+02 0.23838464229E+02 0.18378355266E+02 0.14688372246E+02
 0.12741717355E+02 0.12321858357E+02 0.13266137936E+02 0.15564236495E+02 0.19309249846E+02
 0.24540629705E+02 0.31026473261E+02 0.38107757441E+02 0.44896722813E+02 0.50009581356E+02
 0.51932013928E+02 0.50009581356E+02 0.44896722813E+02 0.38107757441E+02 0.31026473261E+02
 0.24540629705E+02 0.19309249846E+02 0.15564236495E+02 0.13266137936E+02 0.12321858357E+02
 0.12741717355E+02 0.14688372246E+02 0.18378355266E+02 0.23838464229E+02 0.31277941307E+02
 0.42479844076E+02 0.56114140559E+02 0.67587719510E+02 0.40599185924E+02 0.39077723771E+02
 0.35150468597E+02 0.30093739336E+02 0.24680892305E+02 0.19650860553E+02 0.15595696126E+02
 0.12741717355E+02 0.11049085908E+02 0.10381188322E+02 0.10634227326E+02 0.11779484866E+02
 0.13830483193E+02 0.16761093843E+02 0.20399163107E+02 0.24341143773E+02 0.27955825059E+02
 0.30519775011E+02 0.31449261972E+02 0.30519775011E+02 0.27955825059E+02 0.24341143773E+02
 0.20399163107E+02 0.16761093843E+02 0.13830483193E+02 0.11779484866E+02 0.10634227326E+02
 0.10381188322E+02 0.11049085908E+02 0.12741717355E+02 0.15595696126E+02 0.19650860553E+02
 0.24680892305E+02 0.30093739336E+02 0.35150468597E+02 0.39077723771E+02 0.37362088936E+02
 0.36227240224E+02 0.33084787790E+02 0.28620135945E+02 0.23692121478E+02 0.19059691479E+02
 0.15207519979E+02 0.12321858357E+02 0.10381188322E+02 0.92802064522E+01 0.89186934937E+01
 0.92316137843E+01 0.10172343155E+02 0.11670516465E+02 0.13583349655E+02 0.15662055772E+02
 0.17560167173E+02 0.18900410768E+02 0.19385027466E+02 0.18900410768E+02 0.17560167173E+02
 0.15662055772E+02 0.13583349655E+02 0.11670516465E+02 0.10172343155E+02 0.92316137843E+01
 0.89186934937E+01 0.92802064522E+01 0.10381188322E+02 0.12321858357E+02 0.15207519979E+02
 0.19059691479E+02 0.23692121478E+02 0.28620135945E+02 0.33084787790E+02 0.36227240224E+02
 0.43751557606E+02 0.42404416637E+02 0.38665503416E+02 0.33327848763E+02 0.27390163848E+02
 0.21742190399E+02 0.16959185327E+02 0.13266137936E+02 0.10634227326E+02 0.89186934937E+01
 0.79614523004E+01 0.76329804092E+01 0.78287832515E+01 0.84456808994E+01 0.93557880515E+01
 0.10390883791E+02 0.11348779752E+02 0.12026633605E+02 0.12271607715E+02 0.12026633605E+02
 0.11348779752E+02 0.10390883791E+02 0.93557880515E+01 0.84456808994E+01 0.78287832515E+01
 0.76329804092E+01 0.79614523004E+01 0.89186934937E+01 0.10634227326E+02 0.13266137936E+02
 0.16959185327E+02 0.21742190399E+02 0.27390163848E+02 0.33327848763E+02 0.38665503416E+02
 0.42404416637E+02 0.59875796287E+02 0.57799610086E+02 0.52147597185E+02 0.44332338029E+02
 0.35820425465E+02 0.27713332386E+02 0.20850932404E+02 0.15564236495E+02 0.11779484866E+02
 0.92316137843E+01 0.76329804092E+01 0.67474036224E+01 0.63968181213E+01 0.64417993805E+01
 0.67567285862E+01 0.72106691167E+01 0.76660484991E+01 0.79976293949E+01 0.81184425436E+01
 0.79976293949E+01 0.76660484991E+01 0.72106691167E+01 0.67567285862E+01 0.64417993805E+01
 0.63968181213E+01 0.67474036224E+01 0.76329804092E+01 0.92316137843E+01 0.11779484866E+02
 0.15564236495E+02 0.20850932404E+02 0.27713332386E+02 0.35820425465E+02 0.44332338029E+02
 0.52147597185E+02 0.57799610086E+02 0.92131808007E+02 0.88333055137E+02 0.78038785059E+02
 0.64083509671E+02 0.49765072325E+02 0.37291597868E+02 0.27082618989E+02 0.19309249846E+02
 0.13830483193E+02 0.10172343155E+02 0.78287832515E+01 0.63968181213E+01 0.55920690150E+01
 0.52222508370E+01 0.51497843213E+01 0.52557835365E+01 0.54264521623E+01 0.55671462408E+01
 0.56201326022E+01 0.55671462408E+01 0.54264521623E+01 0.52557835365E+01 0.51497843213E+01
 0.52222508370E+01 0.55920690150E+01 0.63968181213E+01 0.78287832515E+01 0.10172343155E+02
 0.13830483193E+02 0.19309249846E+02 0.27082618989E+02 0.37291597868E+02 0.49765072325E+02
 0.64083509671E+02 0.78038785059E+02 0.88333055137E+02 0.14781533966E+03 0.14116766381E+03
 0.12302217266E+03 0.98175153669E+02 0.72672913738E+02 0.51343342638E+02 0.35769617511E+02
 0.24540629705E+02 0.16761093843E+02 0.11670516465E+02 0.84456808994E+01 0.64417993805E+01
 0.52222508370E+01 0.45163260410E+01 0.41593365693E+01 0.40297410633E+01 0.40179951954E+01
 0.40392011015E+01 0.40498916480E+01 0.40392011015E+01 0.40179951954E+01 0.40297410633E+01
 0.41593365693E+01 0.45163260410E+01 0.52222508370E+01 0.64417993805E+01 0.84456808994E+01
 0.11670516465E+02 0.16761093843E+02 0.24540629705E+02 0.35769617511E+02 0.51343342638E+02
 0.72672913738E+02 0.98175153669E+02 0.12302217266E+03 0.14116766381E+03 0.22836204460E+03
 0.21792141039E+03 0.18915761521E+03 0.14911036136E+03 0.10720680153E+03 0.71831408921E+02
 0.46961539255E+02 0.31026473261E+02 0.20399163107E+02 0.13583349655E+02 0.93557880515E+01
 0.67567285862E+01 0.51497843213E+01 0.41593365693E+01 0.35801206829E+01 0.32791855471E+01
 0.31415739653E+01 0.30819757392E+01 0.30640604983E+01 0.30819757392E+01 0.31415739653E+01
 0.32791855471E+01 0.35801206829E+01 0.41593365693E+01 0.51497843213E+01 0.67567285862E+01
 0.93557880515E+01 0.13583349655E+02 0.20399163107E+02 0.31026473261E+02 0.46961539255E+02
 0.71831408921E+02 0.10720680153E+03 0.14911036136E+03 0.18915761521E+03 0.21792141039E+03
 0.32526248590E+03 0.31061790827E+03 0.26993776407E+03 0.21242446921E+03 0.15101591890E+03
 0.98101612643E+02 0.60696441866E+02 0.38107757441E+02 0.24341143773E+02 0.15662055772E+02
 0.10390883791E+02 0.72106691167E+01 0.52557835365E+01 0.40297410633E+01 0.32791855471E+01
 0.28555079256E+01 0.26335450262E+01 0.25215528599E+01 0.24851712362E+01 0.25215528599E+01
 0.26335450262E+01 0.28555079256E+01 0.32791855471E+01 0.40297410633E+01 0.52557835365E+01
 0.72106691167E+01 0.10390883791E+02 0.15662055772E+02 0.24341143773E+02 0.38107757441E+02
 0.60696441866E+02 0.98101612643E+02 0.15101591890E+03 0.21242446921E+03 0.26993776407E+03
 0.31061790827E+03 0.42013959451E+03 0.40165082540E+03 0.34996564597E+03 0.27602887790E+03
 0.19582310272E+03 0.12545308969E+03 0.74983391386E+02 0.44896722813E+02 0.27955825059E+02
 0.17560167173E+02 0.11348779752E+02 0.76660484991E+01 0.54264521623E+01 0.40179951954E+01
 0.31415739653E+01 0.26335450262E+01 0.23580387612E+01 0.22145678984E+01 0.21672743432E+01
 0.22145678984E+01 0.23580387612E+01 0.26335450262E+01 0.31415739653E+01 0.40179951954E+01
 0.54264521623E+01 0.76660484991E+01 0.11348779752E+02 0.17560167173E+02 0.27955825059E+02
 0.44896722813E+02 0.74983391386E+02 0.12545308969E+03 0.19582310272E+03 0.27602887790E+03
 0.34996564597E+03 0.40165082540E+03 0.48999874058E+03 0.46881421187E+03 0.40935679413E+03
 0.32367500480E+03 0.22980553210E+03 0.14648826904E+03 0.86062479116E+02 0.50009581356E+02
 0.30519775011E+02 0.18900410768E+02 0.12026633605E+02 0.79976293949E+01 0.55671462408E+01
 0.40392011015E+01 0.30819757392E+01 0.25215528599E+01 0.22145678984E+01 0.20535555356E+01
 0.20003278269E+01 0.20535555356E+01 0.22145678984E+01 0.25215528599E+01 0.30819757392E+01
 0.40392011015E+01 0.55671462408E+01 0.79976293949E+01 0.12026633605E+02 0.18900410768E+02
 0.30519775011E+02 0.50009581356E+02 0.86062479116E+02 0.14648826904E+03 0.22980553210E+03
 0.32367500480E+03 0.40935679413E+03 0.46881421187E+03 0.51575288157E+03 0.49359947456E+03
 0.43133819331E+03 0.34139180242E+03 0.24252011859E+03 0.15441613068E+03 0.90262513043E+02
 0.51932013928E+02 0.31449261972E+02 0.19385027466E+02 0.12271607715E+02 0.81184425436E+01
 0.56201326022E+01 0.40498916480E+01 0.30640604983E+01 0.24851712362E+01 0.21672743432E+01
 0.20003278269E+01 0.19451232736E+01 0.20003278269E+01 0.21672743432E+01 0.24851712362E+01
 0.30640604983E+01 0.40498916480E+01 0.56201326022E+01 0.81184425436E+01 0.12271607715E+02
 0.19385027466E+02 0.31449261972E+02 0.51932013928E+02 0.90262513043E+02 0.15441613068E+03
 0.24252011859E+03 0.34139180242E+03 0.43133819331E+03 0.49359947456E+03 0.48999874058E+03
 0.46881421187E+03 0.40935679413E+03 0.32367500480E+03 0.22980553210E+03 0.14648826904E+03
 0.86062479116E+02 0.50009581356E+02 0.30519775011E+02 0.18900410768E+02 0.12026633605E+02
 0.79976293949E+01 0.55671462408E+01 0.40392011015E+01 0.30819757392E+01 0.25215528599E+01
 0.22145678984E+01 0.20535555356E+01 0.20003278269E+01 0.20535555356E+01 0.22145678984E+01
 0.25215528599E+01 0.30819757392E+01 0.40392011015E+01 0.55671462408E+01 0.79976293949E+01
 0.12026633605E+02 0.18900410768E+02 0.30519775011E+02 0.50009581356E+02 0.86062479116E+02
 0.14648826904E+03 0.22980553210E+03 0.32367500480E+03 0.40935679413E+03 0.46881421187E+03
 0.42013959451E+03 0.40165082540E+03 0.34996564597E+03 0.27602887790E+03 0.19582310272E+03
 0.12545308969E+03 0.74983391386E+02 0.44896722813E+02 0.27955825059E+02 0.17560167173E+02
 0.11348779752E+02 0.76660484991E+01 0.54264521623E+01 0.40179951954E+01 0.31415739653E+01
 0.26335450262E+01 0.23580387612E+01 0.22145678984E+01 0.21672743432E+01 0.22145678984E+01
 0.23580387612E+01 0.26335450262E+01 0.31415739653E+01 0.40179951954E+01 0.54264521623E+01
 0.76660484991E+01 0.11348779752E+02 0.17560167173E+02 0.27955825059E+02 0.44896722813E+02
 0.74983391386E+02 0.12545308969E+03 0.19582310272E+03 0.27602887790E+03 0.34996564597E+03
 0.40165082540E+03 0.32526248590E+03 0.31061790827E+03 0.26993776407E+03 0.21242446921E+03
 0.15101591890E+03 0.98101612643E+02 0.60696441866E+02 0.38107757441E+02 0.24341143773E+02
 0.15662055772E+02 0.10390883791E+02 0.72106691167E+01 0.52557835365E+01 0.40297410633E+01
 0.32791855471E+01 0.28555079256E+01 0.26335450262E+01 0.25215528599E+01 0.24851712362E+01
 0.25215528599E+01 0.26335450262E+01 0.28555079256E+01 0.32791855471E+01 0.40297410633E+01
 0.52557835365E+01 0.72106691167E+01 0.10390883791E+02 0.15662055772E+02 0.24341143773E+02
 0.38107757441E+02 0.60696441866E+02 0.98101612643E+02 0.15101591890E+03 0.21242446921E+03
 0.26993776407E+03 0.31061790827E+03 0.22836204460E+03 0.21792141039E+03 0.18915761521E+03
 0.14911036136E+03 0.10720680153E+03 0.71831408921E+02 0.46961539255E+02 0.31026473261E+02
 0.20399163107E+02 0.13583349655E+02 0.93557880515E+01 0.67567285862E+01 0.51497843213E+01
 0.41593365693E+01 0.35801206829E+01 0.32791855471E+01 0.31415739653E+01 0.30819757392E+01
 0.30640604983E+01 0.30819757392E+01 0.31415739653E+01 0.32791855471E+01 0.35801206829E+01
 0.41593365693E+01 0.51497843213E+01 0.67567285862E+01 0.93557880515E+01 0.13583349655E+02
 0.20399163107E+02 0.31026473261E+02 0.46961539255E+02 0.71831408921E+02 0.10720680153E+03
 0.14911036136E+03 0.18915761521E+03 0.21792141039E+03 0.14781533966E+03 0.14116766381E+03
 0.12302217266E+03 0.98175153669E+02 0.72672913738E+02 0.51343342638E+02 0.35769617511E+02
 0.24540629705E+02 0.16761093843E+02 0.11670516465E+02 0.84456808994E+01 0.64417993805E+01
 0.52222508370E+01 0.45163260410E+01 0.41593365693E+01 0.40297410633E+01 0.40179951954E+01
 0.40392011015E+01 0.40498916480E+01 0.40392011015E+01 0.40179951954E+01 0.40297410633E+01
 0.41593365693E+01 0.45163260410E+01 0.52222508370E+01 0.64417993805E+01 0.84456808994E+01
 0.11670516465E+02 0.16761093843E+02 0.24540629705E+02 0.35769617511E+02 0.51343342638E+02
 0.72672913738E+02 0.98175153669E+02 0.12302217266E+03 0.14116766381E+03 0.92131808007E+02
 0.88333055137E+02 0.78038785059E+02 0.64083509671E+02 0.49765072325E+02 0.37291597868E+02
 0.27082618989E+02 0.19309249846E+02 0.13830483193E+02 0.10172343155E+02 0.78287832515E+01
 0.63968181213E+01 0.55920690150E+01 0.52222508370E+01 0.51497843213E+01 0.52557835365E+01
 0.54264521623E+01 0.55671462408E+01 0.56201326022E+01 0.55671462408E+01 0.54264521623E+01
 0.52557835365E+01 0.51497843213E+01 0.52222508370E+01 0.55920690150E+01 0.63968181213E+01
 0.78287832515E+01 0.10172343155E+02 0.13830483193E+02 0.19309249846E+02 0.27082618989E+02
 0.37291597868E+02 0.49765072325E+02 0.64083509671E+02 0.78038785059E+02 0.88333055137E+02
 0.59875796287E+02 0.57799610086E+02 0.52147597185E+02 0.44332338029E+02 0.35820425465E+02
 0.27713332386E+02 0.20850932404E+02 0.15564236495E+02 0.11779484866E+02 0.92316137843E+01
 0.76329804092E+01 0.67474036224E+01 0.63968181213E+01 0.64417993805E+01 0.67567285862E+01
 0.72106691167E+01 0.76660484991E+01 0.79976293949E+01 0.81184425436E+01 0.79976293949E+01
 0.76660484991E+01 0.72106691167E+01 0.67567285862E+01 0.64417993805E+01 0.63968181213E+01
 0.67474036224E+01 0.76329804092E+01 0.92316137843E+01 0.11779484866E+02 0.15564236495E+02
 0.20850932404E+02 0.27713332386E+02 0.35820425465E+02 0.44332338029E+02 0.52147597185E+02
 0.57799610086E+02 0.43751557606E+02 0.42404416637E+02 0.38665503416E+02 0.33327848763E+02
 0.27390163848E+02 0.21742190399E+02 0.16959185327E+02 0.13266137936E+02 0.10634227326E+02
 0.89186934937E+01 0.79614523004E+01 0.76329804092E+01 0.78287832515E+01 0.84456808994E+01
 0.93557880515E+01 0.10390883791E+02 0.11348779752E+02 0.12026633605E+02 0.12271607715E+02
 0.12026633605E+02 0.11348779752E+02 0.10390883791E+02 0.93557880515E+01 0.84456808994E+01
 0.78287832515E+01 0.76329804092E+01 0.79614523004E+01 0.89186934937E+01 0.10634227326E+02
 0.13266137936E+02 0.16959185327E+02 0.21742190399E+02 0.27390163848E+02 0.33327848763E+02
 0.38665503416E+02 0.42404416637E+02 0.37362088936E+02 0.36227240224E+02 0.33084787790E+02
 0.28620135945E+02 0.23692121478E+02 0.19059691479E+02 0.15207519979E+02 0.12321858357E+02
 0.10381188322E+02 0.92802064522E+01 0.89186934937E+01 0.92316137843E+01 0.10172343155E+02
 0.11670516465E+02 0.13583349655E+02 0.15662055772E+02 0.17560167173E+02 0.18900410768E+02
 0.19385027466E+02 0.18900410768E+02 0.17560167173E+02 0.15662055772E+02 0.13583349655E+02
 0.11670516465E+02 0.10172343155E+02 0.92316137843E+01 0.89186934937E+01 0.92802064522E+01
 0.10381188322E+02 0.12321858357E+02 0.15207519979E+02 0.19059691479E+02 0.23692121478E+02
 0.28620135945E+02 0.33084787790E+02 0.36227240224E+02 0.40599185924E+02 0.39077723771E+02
 0.35150468597E+02 0.30093739336E+02 0.24680892305E+02 0.19650860553E+02 0.15595696126E+02
 0.12741717355E+02 0.11049085908E+02 0.10381188322E+02 0.10634227326E+02 0.11779484866E+02
 0.13830483193E+02 0.16761093843E+02 0.20399163107E+02 0.24341143773E+02 0.27955825059E+02
 0.30519775011E+02 0.31449261972E+02 0.30519775011E+02 0.27955825059E+02 0.24341143773E+02
 0.20399163107E+02 0.16761093843E+02 0.13830483193E+02 0.11779484866E+02 0.10634227326E+02
 0.10381188322E+02 0.11049085908E+02 0.12741717355E+02 0.15595696126E+02 0.19650860553E+02
 0.24680892305E+02 0.30093739336E+02 0.35150468597E+02 0.39077723771E+02 0.72085651356E+02
 0.67587719510E+02 0.56114140559E+02 0.42479844076E+02 0.31277941307E+02 0.23838464229E+02
 0.18378355266E+02 0.14688372246E+02 0.12741717355E+02 0.12321858357E+02 0.13266137936E+02
 0.15564236495E+02 0.19309249846E+02 0.24540629705E+02 0.31026473261E+02 0.38107757441E+02
 0.44896722813E+02 0.50009581356E+02 0.51932013928E+02 0.50009581356E+02 0.44896722813E+02
 0.38107757441E+02 0.31026473261E+02 0.24540629705E+02 0.19309249846E+02 0.15564236495E+02
 0.13266137936E+02 0.12321858357E+02 0.12741717355E+02 0.14688372246E+02 0.18378355266E+02
 0.23838464229E+02 0.31277941307E+02 0.42479844076E+02 0.56114140559E+02 0.67587719510E+02
 0.16425164237E+03 0.15323606571E+03 0.12429005579E+03 0.87748738164E+02 0.55224903828E+02
 0.34049150140E+02 0.23831981988E+02 0.18378355266E+02 0.15595696126E+02 0.15207519979E+02
 0.16959185327E+02 0.20850932404E+02 0.27082618989E+02 0.35769617511E+02 0.46961539255E+02
 0.60696441866E+02 0.74983391386E+02 0.86062479116E+02 0.90262513043E+02 0.86062479116E+02
 0.74983391386E+02 0.60696441866E+02 0.46961539255E+02 0.35769617511E+02 0.27082618989E+02
 0.20850932404E+02 0.16959185327E+02 0.15207519979E+02 0.15595696126E+02 0.18378355266E+02
 0.23831981988E+02 0.34049150140E+02 0.55224903828E+02 0.87748738164E+02 0.12429005579E+03
 0.15323606571E+03 0.33417362985E+03 0.31342118407E+03 0.25771768172E+03 0.18411858306E+03
 0.11336770510E+03 0.61593710715E+02 0.34049150140E+02 0.23838464229E+02 0.19650860553E+02
 0.19059691479E+02 0.21742190399E+02 0.27713332386E+02 0.37291597868E+02 0.51343342638E+02
 0.71831408921E+02 0.98101612643E+02 0.12545308969E+03 0.14648826904E+03 0.15441613068E+03
 0.14648826904E+03 0.12545308969E+03 0.98101612643E+02 0.71831408921E+02 0.51343342638E+02
 0.37291597868E+02 0.27713332386E+02 0.21742190399E+02 0.19059691479E+02 0.19650860553E+02
 0.23838464229E+02 0.34049150140E+02 0.61593710715E+02 0.11336770510E+03 0.18411858306E+03
 0.25771768172E+03 0.31342118407E+03 0.57104605020E+03 0.53877516336E+03 0.45085566273E+03
 0.33100487150E+03 0.20968019775E+03 0.11336770510E+03 0.55224903828E+02 0.31277941307E+02
 0.24680892305E+02 0.23692121478E+02 0.27390163848E+02 0.35820425465E+02 0.49765072325E+02
 0.72672913738E+02 0.10720680153E+03 0.15101591890E+03 0.19582310272E+03 0.22980553210E+03
 0.24252011859E+03 0.22980553210E+03 0.19582310272E+03 0.15101591890E+03 0.10720680153E+03
 0.72672913738E+02 0.49765072325E+02 0.35820425465E+02 0.27390163848E+02 0.23692121478E+02
 0.24680892305E+02 0.31277941307E+02 0.55224903828E+02 0.11336770510E+03 0.20968019775E+03
 0.33100487150E+03 0.45085566273E+03 0.53877516336E+03 0.83710953817E+03 0.79356081210E+03
 0.67360959803E+03 0.50639515310E+03 0.33100487150E+03 0.18411858306E+03 0.87748738164E+02
 0.42479844076E+02 0.30093739336E+02 0.28620135945E+02 0.33327848763E+02 0.44332338029E+02
 0.64083509671E+02 0.98175153669E+02 0.14911036136E+03 0.21242446921E+03 0.27602887790E+03
 0.32367500480E+03 0.34139180242E+03 0.32367500480E+03 0.27602887790E+03 0.21242446921E+03
 0.14911036136E+03 0.98175153669E+02 0.64083509671E+02 0.44332338029E+02 0.33327848763E+02
 0.28620135945E+02 0.30093739336E+02 0.42479844076E+02 0.87748738164E+02 0.18411858306E+03
 0.33100487150E+03 0.50639515310E+03 0.67360959803E+03 0.79356081210E+03 0.10800164102E+04
 0.10272927333E+04 0.88091412647E+03 0.67360959803E+03 0.45085566273E+03 0.25771768172E+03
 0.12429005579E+03 0.56114140559E+02 0.35150468597E+02 0.33084787790E+02 0.38665503416E+02
 0.52147597185E+02 0.78038785059E+02 0.12302217266E+03 0.18915761521E+03 0.26993776407E+03
 0.34996564597E+03 0.40935679413E+03 0.43133819331E+03 0.40935679413E+03 0.34996564597E+03
 0.26993776407E+03 0.18915761521E+03 0.12302217266E+03 0.78038785059E+02 0.52147597185E+02
 0.38665503416E+02 0.33084787790E+02 0.35150468597E+02 0.56114140559E+02 0.12429005579E+03
 0.25771768172E+03 0.45085566273E+03 0.67360959803E+03 0.88091412647E+03 0.10272927333E+04
 0.12493246030E+04 0.11907424767E+04 0.10272927333E+04 0.79356081210E+03 0.53877516336E+03
 0.31342118407E+03 0.15323606571E+03 0.67587719510E+02 0.39077723771E+02 0.36227240224E+02
 0.42404416637E+02 0.57799610086E+02 0.88333055137E+02 0.14116766381E+03 0.21792141039E+03
 0.31061790827E+03 0.40165082540E+03 0.46881421187E+03 0.49359947456E+03 0.46881421187E+03
 0.40165082540E+03 0.31061790827E+03 0.21792141039E+03 0.14116766381E+03 0.88333055137E+02
 0.57799610086E+02 0.42404416637E+02 0.36227240224E+02 0.39077723771E+02 0.67587719510E+02
 0.15323606571E+03 0.31342118407E+03 0.53877516336E+03 0.79356081210E+03 0.10272927333E+04
 0.11907424767E+04 0.12493246030E+04 0.11907424767E+04 0.10272927333E+04 0.79356081210E+03
 0.53877516336E+03 0.31342118407E+03 0.15323606571E+03 0.67587719510E+02 0.39077723771E+02
 0.36227240224E+02 0.42404416637E+02 0.57799610086E+02 0.88333055137E+02 0.14116766381E+03
 0.21792141039E+03 0.31061790827E+03 0.40165082540E+03 0.46881421187E+03 0.49359947456E+03
 0.46881421187E+03 0.40165082540E+03 0.31061790827E+03 0.21792141039E+03 0.14116766381E+03
 0.88333055137E+02 0.57799610086E+02 0.42404416637E+02 0.36227240224E+02 0.39077723771E+02
 0.67587719510E+02 0.15323606571E+03 0.31342118407E+03 0.53877516336E+03 0.79356081210E+03
 0.10272927333E+04 0.11907424767E+04 0.11907424767E+04 0.11341437848E+04 0.97649044932E+03
 0.75177690629E+03 0.50799010186E+03 0.29377581771E+03 0.14292014353E+03 0.63438492159E+02
 0.37669085734E+02 0.35136990828E+02 0.41109168115E+02 0.55823627658E+02 0.84724107280E+02
 0.13482739356E+03 0.20791536193E+03 0.29652245152E+03 0.38379636351E+03 0.44831379033E+03
 0.47214617754E+03 0.44831379033E+03 0.38379636351E+03 0.29652245152E+03 0.20791536193E+03
 0.13482739356E+03 0.84724107280E+02 0.55823627658E+02 0.41109168115E+02 0.35136990828E+02
 0.37669085734E+02 0.63438492159E+02 0.14292014353E+03 0.29377581771E+03 0.50799010186E+03
 0.75177690629E+03 0.97649044932E+03 0.11341437848E+04 0.10272927333E+04 0.97649044932E+03
 0.83566975931E+03 0.63686126245E+03 0.42424669891E+03 0.24113359483E+03 0.11587044665E+03
 0.52879531456E+02 0.34011567001E+02 0.32117238439E+02 0.37513537426E+02 0.50438847223E+02
 0.74950972654E+02 0.11754494186E+03 0.18039547394E+03 0.25744215706E+03 0.33398790192E+03
 0.39090264567E+03 0.41198742171E+03 0.39090264567E+03 0.33398790192E+03 0.25744215706E+03
 0.18039547394E+03 0.11754494186E+03 0.74950972654E+02 0.50438847223E+02 0.37513537426E+02
 0.32117238439E+02 0.34011567001E+02 0.52879531456E+02 0.11587044665E+03 0.24113359483E+03
 0.42424669891E+03 0.63686126245E+03 0.83566975931E+03 0.97649044932E+03 0.79356081210E+03
 0.75177690629E+03 0.63686126245E+03 0.47715823732E+03 0.31045186577E+03 0.17183271569E+03
 0.81880845335E+02 0.40385334546E+02 0.29211788150E+02 0.27824363025E+02 0.32377952899E+02
 0.42969098923E+02 0.61711993045E+02 0.93937280246E+02 0.14219903481E+03 0.20238317532E+03
 0.26300366283E+03 0.30849591251E+03 0.32542691973E+03 0.30849591251E+03 0.26300366283E+03
 0.20238317532E+03 0.14219903481E+03 0.93937280246E+02 0.61711993045E+02 0.42969098923E+02
 0.32377952899E+02 0.27824363025E+02 0.29211788150E+02 0.40385334546E+02 0.81880845335E+02
 0.17183271569E+03 0.31045186577E+03 0.47715823732E+03 0.63686126245E+03 0.75177690629E+03
 0.53877516336E+03 0.50799010186E+03 0.42424669891E+03 0.31045186577E+03 0.19585740546E+03
 0.10562741400E+03 0.51864059043E+02 0.30138545612E+02 0.24001200696E+02 0.23081037185E+02
 0.26660014888E+02 0.34781385690E+02 0.48114944410E+02 0.69770858621E+02 0.10239164341E+03
 0.14386450064E+03 0.18637923366E+03 0.21867592155E+03 0.23076983881E+03 0.21867592155E+03
 0.18637923366E+03 0.14386450064E+03 0.10239164341E+03 0.69770858621E+02 0.48114944410E+02
 0.34781385690E+02 0.26660014888E+02 0.23081037185E+02 0.24001200696E+02 0.30138545612E+02
 0.51864059043E+02 0.10562741400E+03 0.19585740546E+03 0.31045186577E+03 0.42424669891E+03
 0.50799010186E+03 0.31342118407E+03 0.29377581771E+03 0.24113359483E+03 0.17183271569E+03
 0.10562741400E+03 0.57665431330E+02 0.32526824245E+02 0.23159973163E+02 0.19158027170E+02
 0.18615097825E+02 0.21213366007E+02 0.26968527636E+02 0.36189984566E+02 0.49571020536E+02
 0.68913803275E+02 0.93693891374E+02 0.11952434262E+03 0.13941413344E+03 0.14691548019E+03
 0.13941413344E+03 0.11952434262E+03 0.93693891374E+02 0.68913803275E+02 0.49571020536E+02
 0.36189984566E+02 0.26968527636E+02 0.21213366007E+02 0.18615097825E+02 0.19158027170E+02
 0.23159973163E+02 0.32526824245E+02 0.57665431330E+02 0.10562741400E+03 0.17183271569E+03
 0.24113359483E+03 0.29377581771E+03 0.15323606571E+03 0.14292014353E+03 0.11587044665E+03
 0.81880845335E+02 0.51864059043E+02 0.32526824245E+02 0.23139694846E+02 0.17907908815E+02
 0.15250255609E+02 0.14893192024E+02 0.16591491458E+02 0.20346852029E+02 0.26351542809E+02
 0.34716111840E+02 0.45387292484E+02 0.58362656560E+02 0.71823936019E+02 0.82259037650E+02
 0.86215400613E+02 0.82259037650E+02 0.71823936019E+02 0.58362656560E+02 0.45387292484E+02
 0.34716111840E+02 0.26351542809E+02 0.20346852029E+02 0.16591491458E+02 0.14893192024E+02
 0.15250255609E+02 0.17907908815E+02 0.23139694846E+02 0.32526824245E+02 0.51864059043E+02
 0.81880845335E+02 0.11587044665E+03 0.14292014353E+03 0.67587719510E+02 0.63438492159E+02
 0.52879531456E+02 0.40385334546E+02 0.30138545612E+02 0.23159973163E+02 0.17907908815E+02
 0.14363314262E+02 0.12495949455E+02 0.12097593429E+02 0.13013644945E+02 0.15235022222E+02
 0.18850104622E+02 0.23894453003E+02 0.30142978796E+02 0.36948027704E+02 0.43409086317E+02
 0.48248508210E+02 0.50064463804E+02 0.48248508210E+02 0.43409086317E+02 0.36948027704E+02
 0.30142978796E+02 0.23894453003E+02 0.18850104622E+02 0.15235022222E+02 0.13013644945E+02
 0.12097593429E+02 0.12495949455E+02 0.14363314262E+02 0.17907908815E+02 0.23159973163E+02
 0.30138545612E+02 0.40385334546E+02 0.52879531456E+02 0.63438492159E+02 0.39077723771E+02
 0.37669085734E+02 0.34011567001E+02 0.29211788150E+02 0.24001200696E+02 0.19158027170E+02
 0.15250255609E+02 0.12495949455E+02 0.10859296049E+02 0.10212052836E+02 0.10456524139E+02
 0.11565408358E+02 0.13550268901E+02 0.16383372746E+02 0.19896344255E+02 0.23699026920E+02
 0.27183490900E+02 0.29653993440E+02 0.30549422241E+02 0.29653993440E+02 0.27183490900E+02
 0.23699026920E+02 0.19896344255E+02 0.16383372746E+02 0.13550268901E+02 0.11565408358E+02
 0.10456524139E+02 0.10212052836E+02 0.10859296049E+02 0.12495949455E+02 0.15250255609E+02
 0.19158027170E+02 0.24001200696E+02 0.29211788150E+02 0.34011567001E+02 0.37669085734E+02
 0.36227240224E+02 0.35136990828E+02 0.32117238439E+02 0.27824363025E+02 0.23081037185E+02