    5    5   99    2
  0.1280000E+02  0.4000000E-09  0.4000000E-09  0.4000000E-09  0.5000000E-15
  1.000000000000000E-004
  CAR 
 unknown system                          
     42     10     28
 
  0.8333333E-01  0.8333333E-01  0.8333333E-01  0.3703704E-01
    1      -55.193572    -50.731934   1.000000   1.000000
    2      -55.193463    -50.731876   1.000000   1.000000
    3      -55.193463    -50.731876   1.000000   1.000000
    4      -30.706372    -30.704615   1.000000   1.000000
    5      -15.483300    -15.271450   1.000000   1.000000
    6      -14.410715    -13.990341   1.000000   1.000000
    7      -14.410715    -13.990341   1.000000   1.000000
    8      -12.715117    -12.699986   1.000000   1.000000
    9      -12.715117    -12.699986   1.000000   1.000000
   10      -12.667917    -12.659542   1.000000   1.000000
   11       -4.845504     -1.662427   1.000000   1.000000
   12       -4.845504     -1.463624   1.000000   1.000000
   13       -4.841149     -1.463624   1.000000   1.000000
   14       -3.810762      0.892022   1.000000   1.000000
   15       -3.810762      0.892025   1.000000   1.000000
   16       -1.831846      1.166386   1.000000   1.000000
   17       -1.263494      1.275144   1.000000   1.000000
   18       -1.263494      1.493799   1.000000   1.000000
   19        0.794574      1.493798   1.000000   1.000000
   20        0.794574      3.496661   1.000000   0.000000
   21        0.991401      3.538339   1.000000   0.000000
   22        1.093533      3.538341   1.000000   0.000000
   23        1.502989      4.032165   1.000025   0.000000
   24        1.502989      4.032165   1.024880   0.000000
   25        7.878593      7.925982   0.000000   0.000000
   26        7.878623      7.926004   0.000000   0.000000
   27        7.898480      8.121290   0.000000   0.000000
   28        9.997138     10.236258   0.000000   0.000000
 
  0.2500000E+00  0.8333333E-01  0.8333333E-01  0.1111111E+00
    1      -55.193807    -50.732458   1.000000   1.000000
    2      -55.193536    -50.731876   1.000000   1.000000
    3      -55.193412    -50.731796   1.000000   1.000000
    4      -30.699524    -30.697830   1.000000   1.000000
    5      -15.457728    -15.247681   1.000000   1.000000
    6      -14.480339    -14.162462   1.000000   1.000000
    7      -14.387896    -13.962125   1.000000   1.000000
    8      -12.714211    -12.703200   1.000000   1.000000
    9      -12.677634    -12.662198   1.000000   1.000000
   10      -12.507215    -12.467105   1.000000   1.000000
   11       -4.941661     -2.007188   1.000000   1.000000
   12       -4.931434     -1.438102   1.000000   1.000000
   13       -4.843915     -1.415545   1.000000   1.000000
   14       -4.783930      0.201884   1.000000   1.000000
   15       -3.808271      0.323411   1.000000   1.000000
   16       -1.849683      0.799862   1.000000   1.000000
   17       -1.186587      1.165377   1.000000   1.000000
   18       -0.487615      1.200025   1.000000   1.000000
   19        0.476610      1.338100   1.000000   1.000000
   20        0.654779      3.544105   1.000000   0.000000
   21        0.781472      3.946344   1.000000   0.000000
   22        1.002578      4.004720   1.000000   0.000000
   23        1.399746      4.092550   1.000249   0.000000
   24        1.585587      4.794703   1.029436   0.000000
   25        8.503455      8.579093   0.000000   0.000000
   26        8.537265      8.604480   0.000000   0.000000
   27        8.925006      9.130325   0.000000   0.000000
   28       10.428845     10.320082   0.000000   0.000000
 
  0.4166667E+00  0.8333333E-01  0.8333333E-01  0.1111111E+00
    1      -55.194202    -50.733080   1.000000   1.000000
    2      -55.193362    -50.731735   1.000000   1.000000
    3      -55.193330    -50.731701   1.000000   1.000000
    4      -30.692651    -30.691018   1.000000   1.000000
    5      -15.474003    -15.251031   1.000000   1.000000
    6      -14.468713    -14.251960   1.000000   1.000000
    7      -14.364143    -13.932203   1.000000   1.000000
    8      -12.713629    -12.707083   1.000000   1.000000
    9      -12.650721    -12.639374   1.000000   1.000000
   10      -12.366780    -12.315052   1.000000   1.000000
   11       -5.513642     -2.308570   1.000000   1.000000
   12       -5.030137     -1.397680   1.000000   1.000000
   13       -5.011893     -1.355262   1.000000   1.000000
   14       -4.844068     -0.442952   1.000000   1.000000
   15       -3.806766     -0.065933   1.000000   1.000000
   16       -1.764030      0.623617   1.000000   1.000000
   17       -1.133920      0.936412   1.000000   1.000000
   18       -0.362573      0.969607   1.000000   1.000000
   19        0.250374      1.215044   1.000000   1.000000
   20        0.555796      3.568567   1.000000   0.000000
   21        0.931033      4.007823   1.000000   0.000000
   22        1.047855      4.419920   1.000000   0.000000
   23        1.223253      4.437282   1.000352   0.000000
   24        1.487851      5.286532   1.007367   0.000000
   25        9.196045      9.287385   0.000000   0.000000
   26        9.291989      9.369527   0.000000   0.000000
   27       10.235148     10.262436   0.000000   0.000000
   28       10.426622     10.709809   0.000000   0.000000
 
  0.2500000E+00  0.2500000E+00  0.8333333E-01  0.1111111E+00
    1      -55.193765    -50.732434   1.000000   1.000000
    2      -55.193760    -50.732393   1.000000   1.000000
    3      -55.193378    -50.731742   1.000000   1.000000
    4      -30.693018    -30.691376   1.000000   1.000000
    5      -15.349704    -15.146343   1.000000   1.000000
    6      -14.555697    -14.270364   1.000000   1.000000
    7      -14.390258    -14.012492   1.000000   1.000000
    8      -12.704212    -12.693603   1.000000   1.000000
    9      -12.604728    -12.556858   1.000000   1.000000
   10      -12.486901    -12.461769   1.000000   1.000000
   11       -5.060231     -2.306473   1.000000   1.000000
   12       -4.999852     -1.487275   1.000000   1.000000
   13       -4.946140     -1.334979   1.000000   1.000000
   14       -4.937061     -0.587219   1.000000   1.000000
   15       -4.469573      0.205245   1.000000   1.000000
   16       -1.994851      0.320123   1.000000   1.000000
   17       -0.752875      1.058043   1.000000   1.000000
   18        0.047485      1.099117   1.000000   1.000000
   19        0.087958      1.561551   1.000000   1.014072
   20        0.392569      3.963484   1.000000   0.000000
   21        0.693671      4.061722   1.000000   0.000000
   22        1.193851      4.175252   1.000000   0.000000
   23        1.328384      4.381176   1.004908   0.000000
   24        2.041526      5.364037   0.336981   0.000000
   25        8.910159      9.005665   0.000000   0.000000
   26        9.245914      9.306826   0.000000   0.000000
   27        9.377500      9.526402   0.000000   0.000000
   28       10.653977     10.724054   0.000000   0.000000
 
  0.4166667E+00  0.2500000E+00  0.8333333E-01  0.2222222E+00
    1      -55.194163    -50.733054   1.000000   1.000000
    2      -55.193831    -50.732446   1.000000   1.000000
    3      -55.193438    -50.731752   1.000000   1.000000
    4      -30.686501    -30.684913   1.000000   1.000000
    5      -15.268862    -15.052105   1.000000   1.000000
    6      -14.582538    -14.378202   1.000000   1.000000
    7      -14.390235    -14.020069   1.000000   1.000000
    8      -12.710083    -12.703112   1.000000   1.000000
    9      -12.562409    -12.533898   1.000000   1.000000
   10      -12.436602    -12.392661   1.000000   1.000000
   11       -5.560915     -2.592879   1.000000   1.000000
   12       -5.174100     -1.526485   1.000000   1.000000
   13       -5.031669     -1.222263   1.000000   1.000000
   14       -4.950579     -1.150547   1.000000   1.000000
   15       -4.621351     -0.174516   1.000000   1.000000
   16       -1.922403      0.309720   1.000000   1.000000
   17       -0.549794      0.800900   1.000000   1.000000
   18       -0.342774      1.015553   1.000000   1.000000
   19        0.238551      1.654816   1.000000   1.036199
   20        0.370679      4.021390   1.000000   0.000000
   21        0.837255      4.386565   1.000000   0.000000
   22        1.130371      4.436113   1.000000   0.000000
   23        1.424137      4.490613   1.001733   0.000000
   24        2.298567      5.921087   0.030901   0.000000
   25        9.507624      9.605008   0.000000   0.000000
   26        9.912071      9.993422   0.000000   0.000000
   27       10.134812     10.220278   0.000000   0.000000
   28       10.811901     10.849548   0.000000   0.000000
 
  0.4166667E+00  0.4166667E+00  0.8333333E-01  0.1111111E+00
    1      -55.194133    -50.733029   1.000000   1.000000
    2      -55.194029    -50.732933   1.000000   1.000000
    3      -55.193313    -50.731650   1.000000   1.000000
    4      -30.680332    -30.678787   1.000000   1.000000
    5      -14.975841    -14.753435   1.000000   1.000000
    6      -14.682140    -14.495948   1.000000   1.000000
    7      -14.514178    -14.213116   1.000000   1.000000
    8      -12.684621    -12.680882   1.000000   1.000000
    9      -12.508872    -12.466550   1.000000   1.000000
   10      -12.483123    -12.447536   1.000000   1.000000
   11       -5.734902     -2.921962   1.000000   1.000000
   12       -5.315674     -1.639161   1.000000   1.000000
   13       -5.170001     -1.634168   1.000000   1.000000
   14       -5.048464     -0.970845   1.000000   1.000000
   15       -5.045336     -0.247233   1.000000   1.000000
   16       -1.879988     -0.138834   1.000000   1.000000
   17       -0.501150      0.854640   1.000000   1.000000
   18       -0.111442      0.914422   1.000000   1.000000
   19        0.329274      2.058154   1.000000   0.325175
   20        0.342299      4.400465   1.000000   0.000000
   21        0.781957      4.435418   1.000000   0.000000
   22        0.905557      4.524912   1.000000   0.000000
   23        1.756307      4.626926   1.003053   0.000000
   24        2.943465      6.608335   0.000000   0.000000
   25        9.720395      9.772139   0.000000   0.000000
   26       10.001268     10.089361   0.000000   0.000000
   27       10.763378     10.882439   0.000000   0.000000
   28       10.823368     10.927082   0.000000   0.000000
 
  0.2500000E+00  0.2500000E+00  0.2500000E+00  0.3703704E-01
    1      -55.193908    -50.732474   1.000000   1.000000
    2      -55.193700    -50.732363   1.000000   1.000000
    3      -55.193700    -50.732363   1.000000   1.000000
    4      -30.686806    -30.685215   1.000000   1.000000
    5      -15.214667    -15.022526   1.000000   1.000000
    6      -14.475735    -14.175149   1.000000   1.000000
    7      -14.475735    -14.175150   1.000000   1.000000
    8      -12.697189    -12.663506   1.000000   1.000000
    9      -12.697189    -12.663506   1.000000   1.000000
   10      -12.455166    -12.431012   1.000000   1.000000
   11       -5.088562     -2.570732   1.000000   1.000000
   12       -5.039958     -1.448702   1.000000   1.000000
   13       -5.039958     -1.448702   1.000000   1.000000
   14       -4.990904     -0.684877   1.000000   1.000000
   15       -4.990904     -0.360368   1.000000   1.000000
   16       -2.731137     -0.360365   1.000000   1.000000
   17       -0.139630      1.353382   1.000000   1.000607
   18        0.154920      1.353389   1.000000   1.000880
   19        0.154921      1.695564   1.000000   1.028881
   20        0.529319      4.174955   1.000000   0.000000
   21        0.529318      4.252089   1.000000   0.000000
   22        1.402765      4.252090   1.000000   0.000000
   23        1.984803      5.346329   0.893434   0.000000
   24        1.984803      5.346331   0.186306   0.000000
   25        9.361220      9.457580   0.000000   0.000000
   26        9.366281      9.459681   0.000000   0.000000
   27        9.392782      9.500210   0.000000   0.000000
   28       10.670716     10.775276   0.000000   0.000000
 
  0.4166667E+00  0.2500000E+00  0.2500000E+00  0.1111111E+00
    1      -55.194177    -50.733055   1.000000   1.000000
    2      -55.193866    -50.732439   1.000000   1.000000
    3      -55.193739    -50.732361   1.000000   1.000000
    4      -30.680576    -30.679038   1.000000   1.000000
    5      -15.074637    -14.869776   1.000000   1.000000
    6      -14.557318    -14.351641   1.000000   1.000000
    7      -14.387412    -14.064922   1.000000   1.000000
    8      -12.799664    -12.786778   1.000000   1.000000
    9      -12.609161    -12.573659   1.000000   1.000000
   10      -12.503729    -12.473868   1.000000   1.000000
   11       -5.587238     -2.859616   1.000000   1.000000
   12       -5.188383     -1.522627   1.000000   1.000000
   13       -5.114405     -1.396898   1.000000   1.000000
   14       -5.044130     -1.140080   1.000000   1.000000
   15       -4.996861     -0.710995   1.000000   1.000000
   16       -2.922023     -0.350072   1.000000   1.000000
   17       -0.280375      1.362660   1.000000   1.005536
   18        0.121881      1.451943   1.000000   1.005778
   19        0.209565      1.779218   1.000000   0.959146
   20        0.559735      4.262837   1.000000   0.000000
   21        1.164080      4.498449   1.000000   0.000000
   22        1.541044      4.532672   1.000000   0.000000
   23        1.883665      5.312034   0.923481   0.000000
   24        2.397045      6.064094  -0.012085   0.000000
   25        9.629086      9.728048   0.000000   0.000000
   26        9.789256      9.905375   0.000000   0.000000
   27        9.820788      9.910506   0.000000   0.000000
   28       10.397087     10.471422   0.000000   0.000000
 
  0.4166667E+00  0.4166667E+00  0.2500000E+00  0.1111111E+00
    1      -55.194244    -50.733087   1.000000   1.000000
    2      -55.194070    -50.732974   1.000000   1.000000
    3      -55.193845    -50.732402   1.000000   1.000000
    4      -30.674652    -30.673158   1.000000   1.000000
    5      -14.801767    -14.597953   1.000000   1.000000
    6      -14.558557    -14.360674   1.000000   1.000000
    7      -14.437613    -14.169242   1.000000   1.000000
    8      -12.814762    -12.804275   1.000000   1.000000
    9      -12.683369    -12.649754   1.000000   1.000000
   10      -12.604910    -12.575634   1.000000   1.000000
   11       -5.733205     -3.195705   1.000000   1.000000
   12       -5.379813     -1.624270   1.000000   1.000000
   13       -5.263266     -1.382973   1.000000   1.000000
   14       -5.130357     -1.355594   1.000000   1.000000
   15       -5.126381     -0.727987   1.000000   1.000000
   16       -3.257019     -0.717995   1.000000   1.000000
   17       -0.245827      1.552376   1.000000   1.022404
   18        0.149415      1.593525   1.000000   1.022302
   19        0.169748      2.090939   1.000000   0.140807
   20        1.165195      4.543883   1.000000   0.000000
   21        1.316699      4.563521   1.000000   0.000000
   22        1.790852      4.677640   1.000000   0.000000
   23        1.928810      5.610185   0.736666   0.000000
   24        2.935889      6.600227   0.000000   0.000000
   25        9.368230      9.458395   0.000000   0.000000
   26        9.688256      9.796383   0.000000   0.000000
   27        9.750781      9.872345   0.000000   0.000000
   28       10.596907     10.660554   0.000000   0.000000
 
  0.4166667E+00  0.4166667E+00  0.4166667E+00  0.3703704E-01
    1      -55.194207    -50.733056   1.000000   1.000000
    2      -55.193926    -50.732846   1.000000   1.000000
    3      -55.193926    -50.732846   1.000000   1.000000
    4      -30.668940    -30.667502   1.000000   1.000000
    5      -14.563219    -14.367513   1.000000   1.000000
    6      -14.407214    -14.188755   1.000000   1.000000
    7      -14.407214    -14.188755   1.000000   1.000000
    8      -12.883720    -12.867534   1.000000   1.000000
    9      -12.883719    -12.867534   1.000000   1.000000
   10      -12.787146    -12.764745   1.000000   1.000000
   11       -5.731339     -3.551331   1.000000   1.000000
   12       -5.731339     -1.612191   1.000000   1.000000
   13       -5.225218     -1.612191   1.000000   1.000000
   14       -5.199436     -1.122819   1.000000   1.000000
   15       -5.199436     -0.995472   1.000000   1.000000
   16       -3.849778     -0.995472   1.000000   1.000000
   17        0.003934      2.042586   1.000000   0.612606
   18        0.116063      2.042586   1.000000   0.590526
   19        0.116063      2.155052   1.000000  -0.015068
   20        1.731210      4.722881   1.000000   0.000000
   21        1.731210      4.737496   1.000000   0.000000
   22        1.851232      4.737501   1.000000   0.000000
   23        2.919620      6.586902  -0.312955   0.000000
   24        2.919620      6.586903   0.000000   0.000000
   25        8.965966      9.065327   0.000000   0.000000
   26        9.061186      9.156229   0.000000   0.000000
   27        9.061203      9.156275   0.000000   0.000000
   28       11.319610     11.347295   0.000000   0.000000
