 running on    8 total cores
 distrk:  each k-point on    8 cores,    1 groups
 distr:  one band on    4 cores,    2 groups
 using from now: INCAR     
 vasp.5.4.1 24Jun15 (build Jan 06 2016 13:10:00) complex                        
  
 POSCAR found type information on POSCAR  Sr Fe O 
 POSCAR found :  3 types and       5 ions
 scaLAPACK will be used

 ----------------------------------------------------------------------------- 
|                                                                             |
|  ADVICE TO THIS USER RUNNING 'VASP/VAMP'   (HEAR YOUR MASTER'S VOICE ...):  |
|                                                                             |
|      You have a (more or less) 'small supercell' and for smaller cells      |
|      it is recommended  to use the reciprocal-space projection scheme!      |
|      The real space optimization is not  efficient for small cells and it   |
|      is also less accurate ...                                              |
|      Therefore set LREAL=.FALSE. in the  INCAR file                         |
|                                                                             |
 ----------------------------------------------------------------------------- 

 LDA part: xc-table for Ceperly-Alder, standard interpolation
 POSCAR found type information on POSCAR  Sr Fe O 
 POSCAR found :  3 types and       5 ions
 POSCAR, INCAR and KPOINTS ok, starting setup
 WARNING: small aliasing (wrap around) errors must be expected
 FFT: planning ...
 WAVECAR not read
 entering main loop
       N       E                     dE             d eps       ncg     rms          rms(c)
DAV:   1     0.309066924227E+03    0.30907E+03   -0.17122E+04  1224   0.115E+03
DAV:   2    -0.189246950573E+02   -0.32799E+03   -0.31823E+03  1124   0.384E+02
DAV:   3    -0.368362997303E+02   -0.17912E+02   -0.17693E+02  1540   0.947E+01
DAV:   4    -0.374527505856E+02   -0.61645E+00   -0.61300E+00  1728   0.127E+01
DAV:   5    -0.374636205985E+02   -0.10870E-01   -0.10765E-01  1512   0.142E+00    0.276E+01
RMM:   6    -0.440357525268E+02   -0.65721E+01   -0.13026E+02  1240   0.897E+01    0.439E+01
RMM:   7    -0.323060077463E+02    0.11730E+02   -0.33423E+01  1145   0.406E+01    0.179E+01
RMM:   8    -0.322069352496E+02    0.99072E-01   -0.62889E-01  1197   0.591E+00    0.114E+01
RMM:   9    -0.313973682080E+02    0.80957E+00   -0.15834E+00  1156   0.869E+00    0.537E+00
RMM:  10    -0.313391286848E+02    0.58240E-01   -0.75270E-01  1160   0.588E+00    0.115E+00
  WARNING: DENTET: can't reach specified precision
  Number of Electrons is NELECT =   41.9963937386850     
RMM:  11    -0.313884716428E+02   -0.49343E-01   -0.53756E-02  1138   0.146E+00BRMIX: very serious problems
 the old and the new charge density differ
 old charge density:    41.99998 new   41.99637
    0.132E+00
RMM:  12    -0.313776274124E+02    0.10844E-01   -0.11483E-02  1026   0.696E-01BRMIX: very serious problems
 the old and the new charge density differ
 old charge density:    41.99637 new   41.99998
    0.795E-01
RMM:  13    -0.313773485783E+02    0.27883E-03   -0.95973E-03  1019   0.701E-01
   1 F= -.31377349E+02 E0= -.31377349E+02  d E =-.313773E+02  mag=     4.4542
 BRION: g(F)=  0.000E+00 g(S)=  0.000E+00
 reached required accuracy - stopping structural energy minimisation
