 vasp.5.4.1 24Jun15 (build Jan 06 2016 13:10:00) complex                        
  
 executed on           IFC91_ompi date 2016.02.25  14:48:07
 running on    8 total cores
 distrk:  each k-point on    8 cores,    1 groups
 distr:  one band on NCORES_PER_BAND=   4 cores,    2 groups


--------------------------------------------------------------------------------------------------------


 INCAR:
 POTCAR:    PAW Sr                                
 POTCAR:    PAW Fe                                
 POTCAR:    PAW O_s                               
 POTCAR:    PAW Sr                                
   VRHFIN =Sr: 4s4p5s                                                           
   LEXCH  = 91                                                                  
   EATOM  =   843.6740 eV,   62.0083 Ry                                         
                                                                                
   TITEL  = PAW Sr                                                              
   LULTRA =        F    use ultrasoft PP ?                                      
   IUNSCR =        1    unscreen: 0-lin 1-nonlin 2-no                           
   RPACOR =    2.200    partial core radius                                     
   POMASS =   87.620; ZVAL   =   10.000    mass and valenz                      
   RCORE  =    2.500    outmost cutoff radius                                   
   RWIGS  =    4.040; RWIGS  =    2.138    wigner-seitz radius (au A)           
   ENMAX  =  226.196; ENMIN  =  169.647 eV                                      
   RCLOC  =    2.201    cutoff for local pot                                    
   LCOR   =        T    correct aug charges                                     
   LPAW   =        T    paw PP                                                  
   EAUG   =  366.804                                                            
   DEXC   =     .000                                                            
   RMAX   =    3.066    core radius for proj-oper                               
   RDEP   =    2.562    core radius for depl-charge                             
   QCUT   =   -4.077; QGAM   =    8.155    optimization parameters              
                                                                                
   Description                                                                  
     l     E      TYP  RCUT    TYP  RCUT                                        
     0   .000     23  2.500                                                     
     0   .000     23  2.500                                                     
     1   .000     23  2.500                                                     
     1   .000     23  2.500                                                     
     2   .000     23  2.500                                                     
     2   .000     23  2.500                                                     
  local pseudopotential read in
  partial core-charges read in
  atomic valenz-charges read in
  non local Contribution for L=           0  read in
    real space projection operators read in
  non local Contribution for L=           0  read in
    real space projection operators read in
  non local Contribution for L=           1  read in
    real space projection operators read in
  non local Contribution for L=           1  read in
    real space projection operators read in
  non local Contribution for L=           2  read in
    real space projection operators read in
  non local Contribution for L=           2  read in
    real space projection operators read in
    PAW grid and wavefunctions read in
 
   number of l-projection  operators is LMAX  =           6
   number of lm-projection operators is LMMAX =          18
 
 POTCAR:    PAW Fe                                
   VRHFIN =Fe:  3pd7s1                                                          
   LEXCH  = 91                                                                  
   EATOM  =  2459.3729 eV,  180.7588 Ry                                         
                                                                                
   TITEL  = PAW Fe                                                              
   LULTRA =        F    use ultrasoft PP ?                                      
   IUNSCR =        1    unscreen: 0-lin 1-nonlin 2-no                           
   RPACOR =    1.750    partial core radius                                     
   POMASS =   55.847; ZVAL   =   14.000    mass and valenz                      
   RCORE  =    2.200    outmost cutoff radius                                   
   RWIGS  =    2.200; RWIGS  =    1.164    wigner-seitz radius (au A)           
   ENMAX  =  293.258; ENMIN  =  219.944 eV                                      
   RCLOC  =    1.701    cutoff for local pot                                    
   LCOR   =        T    correct aug charges                                     
   LPAW   =        T    paw PP                                                  
   EAUG   =  578.342                                                            
   DEXC   =     .000                                                            
   RMAX   =    2.692    core radius for proj-oper                               
   RAUG   =    1.300    factor for augmentation sphere                          
   RDEP   =    2.296    core radius for depl-charge                             
   QCUT   =   -4.643; QGAM   =    9.285    optimization parameters              
                                                                                
   Description                                                                  
     l     E      TYP  RCUT    TYP  RCUT                                        
     1   .000     23  2.000                                                     
     1  -.400     23  2.000                                                     
     2   .000     23  2.200                                                     
     2   .000     23  2.200                                                     
     0   .000     23  2.000                                                     
     0  2.000     23  2.000                                                     
     3   .000      7   .000                                                     
  local pseudopotential read in
  partial core-charges read in
  atomic valenz-charges read in
  non local Contribution for L=           1  read in
    real space projection operators read in
  non local Contribution for L=           1  read in
    real space projection operators read in
  non local Contribution for L=           2  read in
    real space projection operators read in
  non local Contribution for L=           2  read in
    real space projection operators read in
  non local Contribution for L=           0  read in
    real space projection operators read in
  non local Contribution for L=           0  read in
    real space projection operators read in
    PAW grid and wavefunctions read in
 
   number of l-projection  operators is LMAX  =           6
   number of lm-projection operators is LMMAX =          18
 
 POTCAR:    PAW O_s                               
   VRHFIN =O: s2p4                                                              
   LEXCH  = 91                                                                  
   EATOM  =   433.0277 eV,   31.8266 Ry                                         
                                                                                
   TITEL  = PAW O_s                                                             
   LULTRA =        F    use ultrasoft PP ?                                      
   IUNSCR =        0    unscreen: 0-lin 1-nonlin 2-no                           
   RPACOR =     .000    partial core radius                                     
   POMASS =   16.000; ZVAL   =    6.000    mass and valenz                      
   RCORE  =    1.900    outmost cutoff radius                                   
   RWIGS  =    1.700; RWIGS  =     .900    wigner-seitz radius (au A)           
   ENMAX  =  250.000; ENMIN  =  202.667 eV                                      
   RCLOC  =    1.014    cutoff for local pot                                    
   LCOR   =        T    correct aug charges                                     
   LPAW   =        T    paw PP                                                  
   EAUG   =  412.352                                                            
   DEXC   =     .000                                                            
   RMAX   =    2.805    core radius for proj-oper                               
   RDEP   =    2.002    core radius for depl-charge                             
   QCUT   =   -4.457; QGAM   =    8.913    optimization parameters              
                                                                                
   Description                                                                  
     l     E      TYP  RCUT    TYP  RCUT                                        
     0   .000     23  1.500                                                     
     0   .000     23  1.500                                                     
     1   .000     23  1.900                                                     
     1   .000     23  1.900                                                     
     2   .000      7   .000                                                     
  local pseudopotential read in
  atomic valenz-charges read in
  non local Contribution for L=           0  read in
    real space projection operators read in
  non local Contribution for L=           0  read in
    real space projection operators read in
  non local Contribution for L=           1  read in
    real space projection operators read in
  non local Contribution for L=           1  read in
    real space projection operators read in
    PAW grid and wavefunctions read in
 
   number of l-projection  operators is LMAX  =           4
   number of lm-projection operators is LMMAX =           8
 

 ----------------------------------------------------------------------------- 
|                                                                             |
|  ADVICE TO THIS USER RUNNING 'VASP/VAMP'   (HEAR YOUR MASTER'S VOICE ...):  |
|                                                                             |
|      You have a (more or less) 'small supercell' and for smaller cells      |
|      it is recommended  to use the reciprocal-space projection scheme!      |
|      The real space optimization is not  efficient for small cells and it   |
|      is also less accurate ...                                              |
|      Therefore set LREAL=.FALSE. in the  INCAR file                         |
|                                                                             |
 ----------------------------------------------------------------------------- 

 Optimization of the real space projectors (new method)

 maximal supplied QI-value         = 15.12
 optimisation between [QCUT,QGAM] = [  8.77, 17.69] = [ 21.53, 87.61] Ry 
 Optimized for a Real-space Cutoff    1.69 Angstroem

   l    n(q)    QCUT    max X(q) W(low)/X(q) W(high)/X(q)  e(spline) 
   0      9     8.768     6.754    0.18E-04    0.21E-05    0.67E-08
   0      9     8.768    11.260    0.63E-04    0.78E-05    0.39E-07
   1      8     8.768     3.800    0.94E-05    0.21E-04    0.25E-07
   1      8     8.768    42.936    0.24E-03    0.36E-03    0.23E-06
   2      8     8.768     4.943    0.61E-04    0.13E-04    0.38E-07
   2      8     8.768    88.807    0.23E-03    0.32E-03    0.20E-06
 Optimization of the real space projectors (new method)

 maximal supplied QI-value         = 17.01
 optimisation between [QCUT,QGAM] = [  8.84, 17.69] = [ 21.90, 87.61] Ry 
 Optimized for a Real-space Cutoff    1.55 Angstroem

   l    n(q)    QCUT    max X(q) W(low)/X(q) W(high)/X(q)  e(spline) 
   1      8     8.844     4.548    0.31E-04    0.33E-04    0.33E-07
   1      8     8.844     5.232    0.39E-03    0.50E-04    0.28E-06
   2      7     8.844     3.957    0.38E-04    0.11E-03    0.44E-07
   2      7     8.844    29.816    0.43E-03    0.99E-03    0.21E-06
   0      8     8.844    23.438    0.18E-04    0.19E-04    0.85E-08
   0      8     8.844    39.418    0.66E-04    0.15E-03    0.47E-07
 Optimization of the real space projectors (new method)

 maximal supplied QI-value         = 19.84
 optimisation between [QCUT,QGAM] = [  8.73, 17.66] = [ 21.34, 87.33] Ry 
 Optimized for a Real-space Cutoff    1.46 Angstroem

   l    n(q)    QCUT    max X(q) W(low)/X(q) W(high)/X(q)  e(spline) 
   0      8     8.731     3.485    0.23E-04    0.53E-05    0.51E-07
   0      8     8.731    30.133    0.28E-03    0.36E-03    0.17E-06
   1      7     8.731     3.755    0.11E-03    0.11E-03    0.69E-07
   1      7     8.731    24.805    0.50E-03    0.59E-03    0.12E-06
  PAW Sr                                :
 energy of atom  1       EATOM= -843.6740
 kinetic energy error for atom=    0.0094 (will be added to EATOM!!)
  PAW Fe                                :
 energy of atom  2       EATOM=-2459.3729
 kinetic energy error for atom=    0.0682 (will be added to EATOM!!)
  PAW O_s                               :
 energy of atom  3       EATOM= -433.0277
 kinetic energy error for atom=    0.0347 (will be added to EATOM!!)
 
 
 POSCAR: Sr1 Fe1 O3                              
  positions in direct lattice
  velocities in cartesian coordinates
 exchange correlation table for  LEXCH =        7
   RHO(1)=    0.500       N(1)  =     2000
   RHO(2)=  100.500       N(2)  =     4000

 VTST: version 3.1, (03/28/14)

 CHAIN: initializing optimizer
 
 OPT: Using VASP QUASI-newton optimizer
 CHAIN: Read ICHAIN            0
 
 POSCAR: Sr1 Fe1 O3                              
  positions in direct lattice
  velocities in cartesian coordinates
 


--------------------------------------------------------------------------------------------------------


 ion  position               nearest neighbor table
   1  0.500  0.500  0.500-   3 2.83   4 2.83   5 2.83   3 2.83   4 2.83   3 2.83   5 2.83   3 2.83
                             4 2.83   5 2.83   4 2.83   5 2.83   2 3.46   2 3.46   2 3.46   2 3.46
   2  0.000  0.000  0.000-   3 2.00   4 2.00   5 2.00   5 2.00   4 2.00   3 2.00   1 3.46   1 3.46
                             1 3.46   1 3.46   1 3.46   1 3.46   1 3.46   1 3.46
   3  0.500  0.000  0.000-   2 2.00   2 2.00   1 2.83   1 2.83   1 2.83   1 2.83
   4  0.000  0.500  0.000-   2 2.00   2 2.00   1 2.83   1 2.83   1 2.83   1 2.83
   5  0.000  0.000  0.500-   2 2.00   2 2.00   1 2.83   1 2.83   1 2.83   1 2.83
 
  LATTYP: Found a simple cubic cell.
 ALAT       =     4.0000000000
  
  Lattice vectors:
  
 A1 = (   4.0000000000,   0.0000000000,   0.0000000000)
 A2 = (   0.0000000000,   4.0000000000,   0.0000000000)
 A3 = (   0.0000000000,   0.0000000000,   4.0000000000)


Analysis of symmetry for initial positions (statically):
=====================================================================
 Subroutine PRICEL returns:
 Original cell was already a primitive cell.
 

 Routine SETGRP: Setting up the symmetry group for a 
 simple cubic supercell.


 Subroutine GETGRP returns: Found 48 space group operations
 (whereof 48 operations were pure point group operations)
 out of a pool of 48 trial point group operations.


The static configuration has the point symmetry O_h .


Analysis of symmetry for dynamics (positions and initial velocities):
=====================================================================
 Subroutine PRICEL returns:
 Original cell was already a primitive cell.
 

 Routine SETGRP: Setting up the symmetry group for a 
 simple cubic supercell.


 Subroutine GETGRP returns: Found 48 space group operations
 (whereof 48 operations were pure point group operations)
 out of a pool of 48 trial point group operations.


The dynamic configuration has the point symmetry O_h .


Analysis of structural, dynamic, and magnetic symmetry:
=====================================================================
 Subroutine PRICEL returns:
 Original cell was already a primitive cell.
 

 Routine SETGRP: Setting up the symmetry group for a 
 simple cubic supercell.


 Subroutine GETGRP returns: Found 48 space group operations
 (whereof 48 operations were pure point group operations)
 out of a pool of 48 trial point group operations.


The magnetic configuration has the point symmetry O_h .


 Subroutine INISYM returns: Found 48 space group operations
 (whereof 48 operations are pure point group operations),
 and found     1 'primitive' translations

 
 
 KPOINTS: Automatic Mesh                          

Automatic generation of k-mesh.
Space group operators:
 irot       det(A)        alpha          n_x          n_y          n_z        tau_x        tau_y        tau_z
    1     1.000000     0.000000     1.000000     0.000000     0.000000     0.000000     0.000000     0.000000
    2    -1.000000     0.000000     1.000000     0.000000     0.000000     0.000000     0.000000     0.000000
    3     1.000000   120.000000    -0.577350    -0.577350    -0.577350     0.000000     0.000000     0.000000
    4    -1.000000   120.000000    -0.577350    -0.577350    -0.577350     0.000000     0.000000     0.000000
    5     1.000000   120.000000     0.577350     0.577350     0.577350     0.000000     0.000000     0.000000
    6    -1.000000   120.000000     0.577350     0.577350     0.577350     0.000000     0.000000     0.000000
    7     1.000000    90.000000     0.000000     0.000000    -1.000000     0.000000     0.000000     0.000000
    8    -1.000000    90.000000     0.000000     0.000000    -1.000000     0.000000     0.000000     0.000000
    9     1.000000   180.000000     0.000000     0.707107     0.707107     0.000000     0.000000     0.000000
   10    -1.000000   180.000000     0.000000     0.707107     0.707107     0.000000     0.000000     0.000000
   11     1.000000    90.000000     0.000000     1.000000     0.000000     0.000000     0.000000     0.000000
   12    -1.000000    90.000000     0.000000     1.000000     0.000000     0.000000     0.000000     0.000000
   13     1.000000   180.000000     0.000000     0.000000     1.000000     0.000000     0.000000     0.000000
   14    -1.000000   180.000000     0.000000     0.000000     1.000000     0.000000     0.000000     0.000000
   15     1.000000   120.000000    -0.577350     0.577350     0.577350     0.000000     0.000000     0.000000
   16    -1.000000   120.000000    -0.577350     0.577350     0.577350     0.000000     0.000000     0.000000
   17     1.000000   120.000000    -0.577350     0.577350    -0.577350     0.000000     0.000000     0.000000
   18    -1.000000   120.000000    -0.577350     0.577350    -0.577350     0.000000     0.000000     0.000000
   19     1.000000    90.000000     0.000000     0.000000     1.000000     0.000000     0.000000     0.000000
   20    -1.000000    90.000000     0.000000     0.000000     1.000000     0.000000     0.000000     0.000000
   21     1.000000    90.000000    -1.000000     0.000000     0.000000     0.000000     0.000000     0.000000
   22    -1.000000    90.000000    -1.000000     0.000000     0.000000     0.000000     0.000000     0.000000
   23     1.000000   180.000000     0.707107     0.000000     0.707107     0.000000     0.000000     0.000000
   24    -1.000000   180.000000     0.707107     0.000000     0.707107     0.000000     0.000000     0.000000
   25     1.000000   120.000000     0.577350    -0.577350     0.577350     0.000000     0.000000     0.000000
   26    -1.000000   120.000000     0.577350    -0.577350     0.577350     0.000000     0.000000     0.000000
   27     1.000000   120.000000    -0.577350    -0.577350     0.577350     0.000000     0.000000     0.000000
   28    -1.000000   120.000000    -0.577350    -0.577350     0.577350     0.000000     0.000000     0.000000
   29     1.000000   180.000000     1.000000     0.000000     0.000000     0.000000     0.000000     0.000000
   30    -1.000000   180.000000     1.000000     0.000000     0.000000     0.000000     0.000000     0.000000
   31     1.000000    90.000000     0.000000    -1.000000     0.000000     0.000000     0.000000     0.000000
   32    -1.000000    90.000000     0.000000    -1.000000     0.000000     0.000000     0.000000     0.000000
   33     1.000000   180.000000     0.707107     0.707107     0.000000     0.000000     0.000000     0.000000
   34    -1.000000   180.000000     0.707107     0.707107     0.000000     0.000000     0.000000     0.000000
   35     1.000000    90.000000     1.000000     0.000000     0.000000     0.000000     0.000000     0.000000
   36    -1.000000    90.000000     1.000000     0.000000     0.000000     0.000000     0.000000     0.000000
   37     1.000000   120.000000     0.577350    -0.577350    -0.577350     0.000000     0.000000     0.000000
   38    -1.000000   120.000000     0.577350    -0.577350    -0.577350     0.000000     0.000000     0.000000
   39     1.000000   180.000000     0.000000     1.000000     0.000000     0.000000     0.000000     0.000000
   40    -1.000000   180.000000     0.000000     1.000000     0.000000     0.000000     0.000000     0.000000
   41     1.000000   120.000000     0.577350     0.577350    -0.577350     0.000000     0.000000     0.000000
   42    -1.000000   120.000000     0.577350     0.577350    -0.577350     0.000000     0.000000     0.000000
   43     1.000000   180.000000     0.000000    -0.707107     0.707107     0.000000     0.000000     0.000000
   44    -1.000000   180.000000     0.000000    -0.707107     0.707107     0.000000     0.000000     0.000000
   45     1.000000   180.000000     0.707107    -0.707107     0.000000     0.000000     0.000000     0.000000
   46    -1.000000   180.000000     0.707107    -0.707107     0.000000     0.000000     0.000000     0.000000
   47     1.000000   180.000000     0.707107     0.000000    -0.707107     0.000000     0.000000     0.000000
   48    -1.000000   180.000000     0.707107     0.000000    -0.707107     0.000000     0.000000     0.000000
 
 Subroutine IBZKPT returns following result:
 ===========================================
 
 Found     10 irreducible k-points:
 
 Following reciprocal coordinates:
            Coordinates               Weight
  0.083333  0.083333  0.083333      8.000000
  0.250000  0.083333  0.083333     24.000000
  0.416667  0.083333  0.083333     24.000000
  0.250000  0.250000  0.083333     24.000000
  0.416667  0.250000  0.083333     48.000000
  0.416667  0.416667  0.083333     24.000000
  0.250000  0.250000  0.250000      8.000000
  0.416667  0.250000  0.250000     24.000000
  0.416667  0.416667  0.250000     24.000000
  0.416667  0.416667  0.416667      8.000000
 
 Following cartesian coordinates:
            Coordinates               Weight
  0.020833  0.020833  0.020833      8.000000
  0.062500  0.020833  0.020833     24.000000
  0.104167  0.020833  0.020833     24.000000
  0.062500  0.062500  0.020833     24.000000
  0.104167  0.062500  0.020833     48.000000
  0.104167  0.104167  0.020833     24.000000
  0.062500  0.062500  0.062500      8.000000
  0.104167  0.062500  0.062500     24.000000
  0.104167  0.104167  0.062500     24.000000
  0.104167  0.104167  0.104167      8.000000
 
 TETIRR: Found     88 inequivalent tetrahedra from     1296


--------------------------------------------------------------------------------------------------------




 Dimension of arrays:
   k-points           NKPTS =     10   k-points in BZ     NKDIM =     10   number of bands    NBANDS=     28
   number of dos      NEDOS =    301   number of ions     NIONS =      5
   non local maximal  LDIM  =      6   non local SUM 2l+1 LMDIM =     18
   total plane-waves  NPLWV =   5832
   max r-space proj   IRMAX =   1896   max aug-charges    IRDMAX=   5542
   dimension x,y,z NGX =    18 NGY =   18 NGZ =   18
   dimension x,y,z NGXF=    36 NGYF=   36 NGZF=   36
   support grid    NGXF=    36 NGYF=   36 NGZF=   36
   ions per type =               1   1   3
 NGX,Y,Z   is equivalent  to a cutoff of   7.48,  7.48,  7.48 a.u.
 NGXF,Y,Z  is equivalent  to a cutoff of  14.96, 14.96, 14.96 a.u.


 I would recommend the setting:
   dimension x,y,z NGX =    17 NGY =   17 NGZ =   17
 SYSTEM =  unknown system                          
 POSCAR =  Sr1 Fe1 O3                              

 Startparameter for this run:
   NWRITE =      2    write-flag & timer
   PREC   = normal    normal or accurate (medium, high low for compatibility)
   ISTART =      0    job   : 0-new  1-cont  2-samecut
   ICHARG =      2    charge: 1-file 2-atom 10-const
   ISPIN  =      2    spin polarized calculation?
   LNONCOLLINEAR =      F non collinear calculations
   LSORBIT =      F    spin-orbit coupling
   INIWAV =      1    electr: 0-lowe 1-rand  2-diag
   LASPH  =      F    aspherical Exc in radial PAW
   METAGGA=      F    non-selfconsistent MetaGGA calc.

 Electronic Relaxation 1
   ENCUT  =  300.0 eV  22.05 Ry    4.70 a.u.   5.65  5.65  5.65*2*pi/ulx,y,z
   ENINI  =  300.0     initial cutoff
   ENAUG  =  578.3 eV  augmentation charge cutoff
   NELM   =    100;   NELMIN=  2; NELMDL= -5     # of ELM steps 
   EDIFF  = 0.1E-02   stopping-criterion for ELM
   LREAL  =      T    real-space projection
   NLSPLINE    = F    spline interpolate recip. space projectors
   LCOMPAT=      F    compatible to vasp.4.4
   GGA_COMPAT  = T    GGA compatible to vasp.4.4-vasp.4.6
   LMAXPAW     = -100 max onsite density
   LMAXMIX     =    4 max onsite mixed and CHGCAR
   VOSKOWN=      0    Vosko Wilk Nusair interpolation
   ROPT   =   -0.00050  -0.00050  -0.00050
 Ionic relaxation
   EDIFFG = -.1E-01   stopping-criterion for IOM
   NSW    =     99    number of steps for IOM
   NBLOCK =      1;   KBLOCK =     99    inner block; outer block 
   IBRION =      1    ionic relax: 0-MD 1-quasi-New 2-CG
   NFREE  =      0    steps in history (QN), initial steepest desc. (CG)
   ISIF   =      0    stress and relaxation
   IWAVPR =     11    prediction:  0-non 1-charg 2-wave 3-comb
   ISYM   =      2    0-nonsym 1-usesym 2-fastsym
   LCORR  =      T    Harris-Foulkes like correction to forces

   POTIM  = 0.5000    time-step for ionic-motion
   TEIN   =    0.0    initial temperature
   TEBEG  =    0.0;   TEEND  =   0.0 temperature during run
   SMASS  =  -3.00    Nose mass-parameter (am)
   estimated Nose-frequenzy (Omega)   =  0.10E-29 period in steps =****** mass=  -0.366E-27a.u.
   SCALEE = 1.0000    scale energy and forces
   NPACO  =    256;   APACO  = 16.0  distance and # of slots for P.C.
   PSTRESS=    0.0 pullay stress

  Mass of Ions in am
   POMASS =  87.62 55.85 16.00
  Ionic Valenz
   ZVAL   =  10.00 14.00  6.00
  Atomic Wigner-Seitz radii
   RWIGS  =  -1.00 -1.00 -1.00
  virtual crystal weights 
   VCA    =   1.00  1.00  1.00
   NELECT =      42.0000    total number of electrons
   NUPDOWN=      -1.0000    fix difference up-down

 DOS related values:
   EMIN   =  10.00;   EMAX   =-10.00  energy-range for DOS
   EFERMI =   0.00
   ISMEAR =    -5;   SIGMA  =   0.05  broadening in eV -4-tet -1-fermi 0-gaus

 Electronic relaxation 2 (details)
   IALGO  =     68    algorithm
   LDIAG  =      T    sub-space diagonalisation (order eigenvalues)
   LSUBROT=      F    optimize rotation matrix (better conditioning)
   TURBO    =      0    0=normal 1=particle mesh
   IRESTART =      0    0=no restart 2=restart with 2 vectors
   NREBOOT  =      0    no. of reboots
   NMIN     =      0    reboot dimension
   EREF     =   0.00    reference energy to select bands
   IMIX   =      4    mixing-type and parameters
     AMIX     =   0.40;   BMIX     =  1.00
     AMIX_MAG =   1.60;   BMIX_MAG =  1.00
     AMIN     =   0.10
     WC   =   100.;   INIMIX=   1;  MIXPRE=   1;  MAXMIX= -45

 Intra band minimization:
   WEIMIN = 0.0010     energy-eigenvalue tresh-hold
   EBREAK =  0.89E-05  absolut break condition
   DEPER  =   0.30     relativ break condition  

   TIME   =   0.40     timestep for ELM

  volume/ion in A,a.u.               =      12.80        86.38
  Fermi-wavevector in a.u.,A,eV,Ry     =   1.422650  2.688418 27.537264  2.023932
  Thomas-Fermi vector in A             =   2.543331
 
 Write flags
   LWAVE  =      F    write WAVECAR
   LCHARG =      T    write CHGCAR
   LVTOT  =      F    write LOCPOT, total local potential
   LVHAR  =      F    write LOCPOT, Hartree potential only
   LELF   =      F    write electronic localiz. function (ELF)
   LORBIT =      0    0 simple, 1 ext, 2 COOP (PROOUT)


 Dipole corrections
   LMONO  =      F    monopole corrections only (constant potential shift)
   LDIPOL =      F    correct potential (dipole corrections)
   IDIPOL =      0    1-x, 2-y, 3-z, 4-all directions 
   EPSILON=  1.0000000 bulk dielectric constant

 LDA+U is selected, type is set to LDAUTYPE =  2
   angular momentum for each species LDAUL =     0    2    0
   U (eV)           for each species LDAUU =   0.0  5.3  0.0
   J (eV)           for each species LDAUJ =   0.0  0.0  0.0
 Exchange correlation treatment:
   GGA     =    --    GGA type
   LEXCH   =     7    internal setting for exchange type
   VOSKOWN=      0    Vosko Wilk Nusair interpolation
   LHFCALC =     F    Hartree Fock is set to
   LHFONE  =     F    Hartree Fock one center treatment
   AEXX    =    0.0000 exact exchange contribution

 Linear response parameters
   LEPSILON=     F    determine dielectric tensor
   LRPA    =     F    only Hartree local field effects (RPA)
   LNABLA  =     F    use nabla operator in PAW spheres
   LVEL    =     F    velocity operator in full k-point grid
   LINTERFAST=   F  fast interpolation
   KINTER  =     0    interpolate to denser k-point grid
   CSHIFT  =0.1000    complex shift for real part using Kramers Kronig
   OMEGAMAX=  -1.0    maximum frequency
   DEG_THRESHOLD= 0.2000000E-02 threshold for treating states as degnerate
   RTIME   =    0.100 relaxation time in fs

 Orbital magnetization related:
   ORBITALMAG=     F  switch on orbital magnetization
   LCHIMAG   =     F  perturbation theory with respect to B field
   DQ        =  0.001000  dq finite difference perturbation B field



--------------------------------------------------------------------------------------------------------


 quasi-Newton-method for relaxation of ions
 charge density and potential will be updated during run
 spin polarized calculation
 RMM-DIIS sequential band-by-band and
  variant of blocked Davidson during initial phase
 perform sub-space diagonalisation
    before iterative eigenvector-optimisation
 modified Broyden-mixing scheme, WC =      100.0
 initial mixing is a Kerker type mixing with AMIX =  0.4000 and BMIX =      1.0000
 Hartree-type preconditioning will be used
 using additional bands            7
 real space projection scheme for non local part
 use partial core corrections
 calculate Harris-corrections to forces 
   (improved forces if not selfconsistent)
 use gradient corrections 
 use of overlap-Matrix (Vanderbilt PP)
 Fermi weights with tetrahedron method with Bloechl corrections


--------------------------------------------------------------------------------------------------------


  energy-cutoff  :      300.00
  volume of cell :       64.00
      direct lattice vectors                 reciprocal lattice vectors
     4.000000000  0.000000000  0.000000000     0.250000000  0.000000000  0.000000000
     0.000000000  4.000000000  0.000000000     0.000000000  0.250000000  0.000000000
     0.000000000  0.000000000  4.000000000     0.000000000  0.000000000  0.250000000

  length of vectors
     4.000000000  4.000000000  4.000000000     0.250000000  0.250000000  0.250000000


 
 k-points in units of 2pi/SCALE and weight: Automatic Mesh                          
   0.02083333  0.02083333  0.02083333       0.037
   0.06250000  0.02083333  0.02083333       0.111
   0.10416667  0.02083333  0.02083333       0.111
   0.06250000  0.06250000  0.02083333       0.111
   0.10416667  0.06250000  0.02083333       0.222
   0.10416667  0.10416667  0.02083333       0.111
   0.06250000  0.06250000  0.06250000       0.037
   0.10416667  0.06250000  0.06250000       0.111
   0.10416667  0.10416667  0.06250000       0.111
   0.10416667  0.10416667  0.10416667       0.037
 
 k-points in reciprocal lattice and weights: Automatic Mesh                          
   0.08333333  0.08333333  0.08333333       0.037
   0.25000000  0.08333333  0.08333333       0.111
   0.41666667  0.08333333  0.08333333       0.111
   0.25000000  0.25000000  0.08333333       0.111
   0.41666667  0.25000000  0.08333333       0.222
   0.41666667  0.41666667  0.08333333       0.111
   0.25000000  0.25000000  0.25000000       0.037
   0.41666667  0.25000000  0.25000000       0.111
   0.41666667  0.41666667  0.25000000       0.111
   0.41666667  0.41666667  0.41666667       0.037
 
 position of ions in fractional coordinates (direct lattice) 
   0.50000000  0.50000000  0.50000000
   0.00000000  0.00000000  0.00000000
   0.50000000  0.00000000  0.00000000
   0.00000000  0.50000000  0.00000000
   0.00000000  0.00000000  0.50000000
 
 position of ions in cartesian coordinates  (Angst):
   2.00000000  2.00000000  2.00000000
   0.00000000  0.00000000  0.00000000
   2.00000000  0.00000000  0.00000000
   0.00000000  2.00000000  0.00000000
   0.00000000  0.00000000  2.00000000
 


--------------------------------------------------------------------------------------------------------


 k-point  1 :   0.0833 0.0833 0.0833  plane waves:     751
 k-point  2 :   0.2500 0.0833 0.0833  plane waves:     760
 k-point  3 :   0.4167 0.0833 0.0833  plane waves:     760
 k-point  4 :   0.2500 0.2500 0.0833  plane waves:     754
 k-point  5 :   0.4167 0.2500 0.0833  plane waves:     759
 k-point  6 :   0.4167 0.4167 0.0833  plane waves:     751
 k-point  7 :   0.2500 0.2500 0.2500  plane waves:     751
 k-point  8 :   0.4167 0.2500 0.2500  plane waves:     755
 k-point  9 :   0.4167 0.4167 0.2500  plane waves:     756
 k-point 10 :   0.4167 0.4167 0.4167  plane waves:     744

 maximum and minimum number of plane-waves per node :       196      183

 maximum number of plane-waves:       760
 maximum index in each direction: 
   IXMAX=    5   IYMAX=    5   IZMAX=    5
   IXMIN=   -6   IYMIN=   -6   IZMIN=   -6

 WARNING: aliasing errors must be expected set NGX to  24 to avoid them
 WARNING: aliasing errors must be expected set NGY to  24 to avoid them
 WARNING: aliasing errors must be expected set NGZ to  24 to avoid them
 aliasing errors are usually negligible using standard VASP settings
 and one can safely disregard these warnings

 real space projection operators:
  total allocation   :        665.62 KBytes
  max/ min on nodes  :        189.55        143.97


 parallel 3D FFT for wavefunctions:
    minimum data exchange during FFTs selected (reduces bandwidth)
 parallel 3D FFT for charge:
    minimum data exchange during FFTs selected (reduces bandwidth)


 total amount of memory used by VASP on root node    32430. kBytes
========================================================================

   base      :      30000. kBytes
   nonlr-proj:        384. kBytes
   fftplans  :        271. kBytes
   grid      :        728. kBytes
   one-center:         62. kBytes
   wavefun   :        985. kBytes
 
     INWAV:  cpu time    0.0000: real time    0.0000
 Broyden mixing: mesh for mixing (old mesh)
   NGX = 11   NGY = 11   NGZ = 11
  (NGX  = 36   NGY  = 36   NGZ  = 36)
  gives a total of   1331 points

 initial charge density was supplied:
 charge density of overlapping atoms calculated
 number of electron      42.0000000 magnetization       5.0000000
 keeping initial charge density in first step


--------------------------------------------------------------------------------------------------------


 Maximum index for non-local projection operator          440
 Maximum index for augmentation-charges          635 (set IRDMAX)


--------------------------------------------------------------------------------------------------------


 First call to EWALD:  gamma=   0.443
 Maximum number of real-space cells 3x 3x 3
 Maximum number of reciprocal cells 3x 3x 3

 FEWALD executed in parallel
    FEWALD:  cpu time    0.0020: real time    0.0019


----------------------------------------- Iteration    1(   1)  ---------------------------------------


    POTLOK:  cpu time    0.0570: real time    0.0580
    SETDIJ:  cpu time    0.0130: real time    0.0125
atom =   1  type =  1  l = 0
 
 onsite density matrix
 
spin component  1
 
  1.1831
 
spin component  2
 
  0.9680
 
 occupancies and eigenvectors
 
  o =  0.9680  v =  0.0000  1.0000      0.0000  0.0000
  o =  1.1831  v =  1.0000  0.0000      0.0000  0.0000
atom =   2  type =  2  l = 2
 
 onsite density matrix
 
spin component  1
 
  0.6713  0.0000  0.0000  0.0000  0.0000
  0.0000  0.6713  0.0000  0.0000  0.0000
  0.0000  0.0000  0.6713  0.0000  0.0000
  0.0000  0.0000  0.0000  0.6713  0.0000
  0.0000  0.0000  0.0000  0.0000  0.6713
 
spin component  2
 
  0.5818  0.0000  0.0000  0.0000  0.0000
  0.0000  0.5818  0.0000  0.0000  0.0000
  0.0000  0.0000  0.5818  0.0000  0.0000
  0.0000  0.0000  0.0000  0.5818  0.0000
  0.0000  0.0000  0.0000  0.0000  0.5818
 
 occupancies and eigenvectors
 
  o =  0.5818  v =  0.0000  0.0000  0.0000  0.0000  0.0000  1.0000  0.0000  0.0000  0.0000  0.0000      0.0000  0.0000  0.0000  0.0000  0.0000  0.0000  0.0000  0.0000  0.0000  0.0000
  o =  0.5818  v =  0.0000  0.0000  0.0000  0.0000  0.0000  0.0000  1.0000  0.0000  0.0000  0.0000      0.0000  0.0000  0.0000  0.0000  0.0000  0.0000  0.0000  0.0000  0.0000  0.0000
  o =  0.5818  v =  0.0000  0.0000  0.0000  0.0000  0.0000  0.0000  0.0000  1.0000  0.0000  0.0000      0.0000  0.0000  0.0000  0.0000  0.0000  0.0000  0.0000  0.0000  0.0000  0.0000
  o =  0.5818  v =  0.0000  0.0000  0.0000  0.0000  0.0000  0.0000  0.0000  0.0000  1.0000  0.0000      0.0000  0.0000  0.0000  0.0000  0.0000  0.0000  0.0000  0.0000  0.0000  0.0000
  o =  0.5818  v =  0.0000  0.0000  0.0000  0.0000  0.0000  0.0000  0.0000  0.0000  0.0000  1.0000      0.0000  0.0000  0.0000  0.0000  0.0000  0.0000  0.0000  0.0000  0.0000  0.0000
  o =  0.6713  v =  1.0000  0.0000  0.0000  0.0000  0.0000  0.0000  0.0000  0.0000  0.0000  0.0000      0.0000  0.0000  0.0000  0.0000  0.0000  0.0000  0.0000  0.0000  0.0000  0.0000
  o =  0.6713  v =  0.0000  1.0000  0.0000  0.0000  0.0000  0.0000  0.0000  0.0000  0.0000  0.0000      0.0000  0.0000  0.0000  0.0000  0.0000  0.0000  0.0000  0.0000  0.0000  0.0000
  o =  0.6713  v =  0.0000  0.0000  1.0000  0.0000  0.0000  0.0000  0.0000  0.0000  0.0000  0.0000      0.0000  0.0000  0.0000  0.0000  0.0000  0.0000  0.0000  0.0000  0.0000  0.0000
  o =  0.6713  v =  0.0000  0.0000  0.0000  1.0000  0.0000  0.0000  0.0000  0.0000  0.0000  0.0000      0.0000  0.0000  0.0000  0.0000  0.0000  0.0000  0.0000  0.0000  0.0000  0.0000
  o =  0.6713  v =  0.0000  0.0000  0.0000  0.0000  1.0000  0.0000  0.0000  0.0000  0.0000  0.0000      0.0000  0.0000  0.0000  0.0000  0.0000  0.0000  0.0000  0.0000  0.0000  0.0000
atom =   3  type =  3  l = 0
 
 onsite density matrix
 
spin component  1
 
  1.0874
 
spin component  2
 
  0.7767
 
 occupancies and eigenvectors
 
  o =  0.7767  v =  0.0000  1.0000      0.0000  0.0000
  o =  1.0874  v =  1.0000  0.0000      0.0000  0.0000
atom =   4  type =  3  l = 0
 
 onsite density matrix
 
spin component  1
 
  1.0874
 
spin component  2
 
  0.7767
 
 occupancies and eigenvectors
 
  o =  0.7767  v =  0.0000  1.0000      0.0000  0.0000
  o =  1.0874  v =  1.0000  0.0000      0.0000  0.0000
atom =   5  type =  3  l = 0
 
 onsite density matrix
 
spin component  1
 
  1.0874
 
spin component  2
 
  0.7767
 
 occupancies and eigenvectors
 
  o =  0.7767  v =  0.0000  1.0000      0.0000  0.0000
  o =  1.0874  v =  1.0000  0.0000      0.0000  0.0000
     EDDAV:  cpu time    0.4329: real time    0.4327
 BZINTS: Fermi energy: 15.696189; 42.000000 electrons
         Band energy:-185.984398;  BLOECHL correction: -0.119126
       DOS:  cpu time    0.0130: real time    0.0130
    --------------------------------------------
      LOOP:  cpu time    0.5199: real time    0.5216

 eigenvalue-minimisations  :  1224
 total energy-change (2. order) : 0.3090669E+03  (-0.1712233E+04)
 number of electron      42.0000000 magnetization       5.0000000
 augmentation part       42.0000000 magnetization       5.0000000

 Free energy of the ion-electron system (eV)
  ---------------------------------------------------
  alpha Z        PSCENC =       268.56435900
  Ewald energy   TEWEN  =     -3158.39996801
  -Hartree energ DENC   =     -1330.43788032
  -exchange      EXHF   =         0.00000000
  -V(xc)+E(xc)   XCENC  =       189.37424307
  PAW double counting   =      3241.81915236    -3317.81696278
  entropy T*S    EENTRO =         0.00000000
  eigenvalues    EBANDS =      -185.98439829
  atomic energy  EATOM  =      4601.94837920
  Solvation  Ediel_sol  =         0.00000000
  ---------------------------------------------------
  free energy    TOTEN  =       309.06692423 eV

  energy without entropy =      309.06692423  energy(sigma->0) =      309.06692423


--------------------------------------------------------------------------------------------------------




----------------------------------------- Iteration    1(   2)  ---------------------------------------


     EDDAV:  cpu time    0.3999: real time    0.4001
 BZINTS: Fermi energy:  6.074103; 42.000000 electrons
         Band energy:-513.976018;  BLOECHL correction: -0.034959
       DOS:  cpu time    0.0130: real time    0.0133
    --------------------------------------------
      LOOP:  cpu time    0.4139: real time    0.4150

 eigenvalue-minimisations  :  1124
 total energy-change (2. order) :-0.3279916E+03  (-0.3182276E+03)
 number of electron      42.0000000 magnetization       5.0000000
 augmentation part       42.0000000 magnetization       5.0000000

 Free energy of the ion-electron system (eV)
  ---------------------------------------------------
  alpha Z        PSCENC =       268.56435900
  Ewald energy   TEWEN  =     -3158.39996801
  -Hartree energ DENC   =     -1330.43788032
  -exchange      EXHF   =         0.00000000
  -V(xc)+E(xc)   XCENC  =       189.37424307
  PAW double counting   =      3241.81915236    -3317.81696278
  entropy T*S    EENTRO =         0.00000000
  eigenvalues    EBANDS =      -513.97601758
  atomic energy  EATOM  =      4601.94837920
  Solvation  Ediel_sol  =         0.00000000
  ---------------------------------------------------
  free energy    TOTEN  =       -18.92469506 eV

  energy without entropy =      -18.92469506  energy(sigma->0) =      -18.92469506


--------------------------------------------------------------------------------------------------------




----------------------------------------- Iteration    1(   3)  ---------------------------------------


     EDDAV:  cpu time    0.5239: real time    0.5244
 BZINTS: Fermi energy:  5.628525; 42.000000 electrons
         Band energy:-531.887622;  BLOECHL correction: -0.045946
       DOS:  cpu time    0.0120: real time    0.0125
    --------------------------------------------
      LOOP:  cpu time    0.5369: real time    0.5383

 eigenvalue-minimisations  :  1540
 total energy-change (2. order) :-0.1791160E+02  (-0.1769333E+02)
 number of electron      42.0000000 magnetization       5.0000000
 augmentation part       42.0000000 magnetization       5.0000000

 Free energy of the ion-electron system (eV)
  ---------------------------------------------------
  alpha Z        PSCENC =       268.56435900
  Ewald energy   TEWEN  =     -3158.39996801
  -Hartree energ DENC   =     -1330.43788032
  -exchange      EXHF   =         0.00000000
  -V(xc)+E(xc)   XCENC  =       189.37424307
  PAW double counting   =      3241.81915236    -3317.81696278
  entropy T*S    EENTRO =         0.00000000
  eigenvalues    EBANDS =      -531.88762225
  atomic energy  EATOM  =      4601.94837920
  Solvation  Ediel_sol  =         0.00000000
  ---------------------------------------------------
  free energy    TOTEN  =       -36.83629973 eV

  energy without entropy =      -36.83629973  energy(sigma->0) =      -36.83629973


--------------------------------------------------------------------------------------------------------




----------------------------------------- Iteration    1(   4)  ---------------------------------------


     EDDAV:  cpu time    0.5789: real time    0.5801
 BZINTS: Fermi energy:  5.604493; 42.000000 electrons
         Band energy:-532.504073;  BLOECHL correction: -0.046634
       DOS:  cpu time    0.0130: real time    0.0126
    --------------------------------------------
      LOOP:  cpu time    0.5929: real time    0.5942

 eigenvalue-minimisations  :  1728
 total energy-change (2. order) :-0.6164509E+00  (-0.6129993E+00)
 number of electron      42.0000000 magnetization       5.0000000
 augmentation part       42.0000000 magnetization       5.0000000

 Free energy of the ion-electron system (eV)
  ---------------------------------------------------
  alpha Z        PSCENC =       268.56435900
  Ewald energy   TEWEN  =     -3158.39996801
  -Hartree energ DENC   =     -1330.43788032
  -exchange      EXHF   =         0.00000000
  -V(xc)+E(xc)   XCENC  =       189.37424307
  PAW double counting   =      3241.81915236    -3317.81696278
  entropy T*S    EENTRO =         0.00000000
  eigenvalues    EBANDS =      -532.50407311
  atomic energy  EATOM  =      4601.94837920
  Solvation  Ediel_sol  =         0.00000000
  ---------------------------------------------------
  free energy    TOTEN  =       -37.45275059 eV

  energy without entropy =      -37.45275059  energy(sigma->0) =      -37.45275059


--------------------------------------------------------------------------------------------------------




----------------------------------------- Iteration    1(   5)  ---------------------------------------


     EDDAV:  cpu time    0.5129: real time    0.5125
 BZINTS: Fermi energy:  5.603168; 42.000000 electrons
         Band energy:-532.514943;  BLOECHL correction: -0.046771
       DOS:  cpu time    0.0110: real time    0.0113
    CHARGE:  cpu time    0.0230: real time    0.0230
    MIXING:  cpu time    0.0000: real time    0.0004
    --------------------------------------------
      LOOP:  cpu time    0.5469: real time    0.5487

 eigenvalue-minimisations  :  1512
 total energy-change (2. order) :-0.1087001E-01  (-0.1076477E-01)
 number of electron      41.9999784 magnetization       2.6622024
 augmentation part       12.8104587 magnetization       1.6938603

 Broyden mixing:
  rms(total) = 0.27644E+01    rms(broyden)= 0.27566E+01
  rms(prec ) = 0.60114E+01
  weight for this iteration     100.00

 Free energy of the ion-electron system (eV)
  ---------------------------------------------------
  alpha Z        PSCENC =       268.56435900
  Ewald energy   TEWEN  =     -3158.39996801
  -Hartree energ DENC   =     -1330.43788032
  -exchange      EXHF   =         0.00000000
  -V(xc)+E(xc)   XCENC  =       189.37424307
  PAW double counting   =      3241.81915236    -3317.81696278
  entropy T*S    EENTRO =         0.00000000
  eigenvalues    EBANDS =      -532.51494312
  atomic energy  EATOM  =      4601.94837920
  Solvation  Ediel_sol  =         0.00000000
  ---------------------------------------------------
  free energy    TOTEN  =       -37.46362060 eV

  energy without entropy =      -37.46362060  energy(sigma->0) =      -37.46362060


--------------------------------------------------------------------------------------------------------




----------------------------------------- Iteration    1(   6)  ---------------------------------------


    POTLOK:  cpu time    0.0560: real time    0.0573
    SETDIJ:  cpu time    0.0130: real time    0.0123
atom =   1  type =  1  l = 0
 
 onsite density matrix
 
spin component  1
 
  0.9765
 
spin component  2
 
  1.1079
 
 occupancies and eigenvectors
 
  o =  0.9765  v =  1.0000  0.0000      0.0000  0.0000
  o =  1.1079  v =  0.0000  1.0000      0.0000  0.0000
atom =   2  type =  2  l = 2
 
 onsite density matrix
 
spin component  1
 
  1.1425  0.0000  0.0000  0.0000  0.0000
  0.0000  1.1425  0.0000  0.0000  0.0000
  0.0000  0.0000  0.6157  0.0000  0.0000
  0.0000  0.0000  0.0000  1.1425  0.0000
  0.0000  0.0000  0.0000  0.0000  0.6157
 
spin component  2
 
  0.0476  0.0000  0.0000  0.0000  0.0000
  0.0000  0.0476  0.0000  0.0000  0.0000
  0.0000  0.0000  0.3275  0.0000  0.0000
  0.0000  0.0000  0.0000  0.0476  0.0000
  0.0000  0.0000  0.0000  0.0000  0.3275
 
 occupancies and eigenvectors
 
  o =  0.0476  v =  0.0000  0.0000  0.0000  0.0000  0.0000  1.0000  0.0000  0.0000  0.0000  0.0000      0.0000  0.0000  0.0000  0.0000  0.0000  0.0000  0.0000  0.0000  0.0000  0.0000
  o =  0.0476  v =  0.0000  0.0000  0.0000  0.0000  0.0000  0.0000 -0.7399  0.0000  0.6727  0.0000      0.0000  0.0000  0.0000  0.0000  0.0000  0.0000  0.0000  0.0000  0.0000  0.0000
  o =  0.0476  v =  0.0000  0.0000  0.0000  0.0000  0.0000  0.0000 -0.6727  0.0000 -0.7399  0.0000      0.0000  0.0000  0.0000  0.0000  0.0000  0.0000  0.0000  0.0000  0.0000  0.0000
  o =  0.3275  v =  0.0000  0.0000  0.0000  0.0000  0.0000  0.0000  0.0000  0.9998  0.0000  0.0182      0.0000  0.0000  0.0000  0.0000  0.0000  0.0000  0.0000  0.0000  0.0000  0.0000
  o =  0.3275  v =  0.0000  0.0000  0.0000  0.0000  0.0000  0.0000  0.0000 -0.0182  0.0000  0.9998      0.0000  0.0000  0.0000  0.0000  0.0000  0.0000  0.0000  0.0000  0.0000  0.0000
  o =  0.6157  v =  0.0000  0.0000 -0.0431  0.0000  0.9991  0.0000  0.0000  0.0000  0.0000  0.0000      0.0000  0.0000  0.0000  0.0000  0.0000  0.0000  0.0000  0.0000  0.0000  0.0000
  o =  0.6157  v =  0.0000  0.0000  0.9991  0.0000  0.0431  0.0000  0.0000  0.0000  0.0000  0.0000      0.0000  0.0000  0.0000  0.0000  0.0000  0.0000  0.0000  0.0000  0.0000  0.0000
  o =  1.1425  v =  0.0000 -0.0909  0.0000 -0.9959  0.0000  0.0000  0.0000  0.0000  0.0000  0.0000      0.0000  0.0000  0.0000  0.0000  0.0000  0.0000  0.0000  0.0000  0.0000  0.0000
  o =  1.1425  v =  1.0000  0.0000  0.0000  0.0000  0.0000  0.0000  0.0000  0.0000  0.0000  0.0000      0.0000  0.0000  0.0000  0.0000  0.0000  0.0000  0.0000  0.0000  0.0000  0.0000
  o =  1.1425  v =  0.0000 -0.9959  0.0000  0.0909  0.0000  0.0000  0.0000  0.0000  0.0000  0.0000      0.0000  0.0000  0.0000  0.0000  0.0000  0.0000  0.0000  0.0000  0.0000  0.0000
atom =   3  type =  3  l = 0
 
 onsite density matrix
 
spin component  1
 
  0.8439
 
spin component  2
 
  1.0201
 
 occupancies and eigenvectors
 
  o =  0.8439  v =  1.0000  0.0000      0.0000  0.0000
  o =  1.0201  v =  0.0000  1.0000      0.0000  0.0000
atom =   4  type =  3  l = 0
 
 onsite density matrix
 
spin component  1
 
  0.8439
 
spin component  2
 
  1.0201
 
 occupancies and eigenvectors
 
  o =  0.8439  v =  1.0000  0.0000      0.0000  0.0000
  o =  1.0201  v =  0.0000  1.0000      0.0000  0.0000
atom =   5  type =  3  l = 0
 
 onsite density matrix
 
spin component  1
 
  0.8439
 
spin component  2
 
  1.0201
 
 occupancies and eigenvectors
 
  o =  0.8439  v =  1.0000  0.0000      0.0000  0.0000
  o =  1.0201  v =  0.0000  1.0000      0.0000  0.0000
    EDDIAG:  cpu time    0.0830: real time    0.0829
  RMM-DIIS:  cpu time    0.2030: real time    0.2028
    ORTHCH:  cpu time    0.0120: real time    0.0127
 BZINTS: Fermi energy:  1.968035; 42.000000 electrons
         Band energy:-613.001623;  BLOECHL correction: -0.105736
       DOS:  cpu time    0.0140: real time    0.0135
    CHARGE:  cpu time    0.0220: real time    0.0220
    MIXING:  cpu time    0.0000: real time    0.0004
    --------------------------------------------
      LOOP:  cpu time    0.4039: real time    0.4061

 eigenvalue-minimisations  :  1240
 total energy-change (2. order) :-0.6572132E+01  (-0.1302605E+02)
 number of electron      41.9999800 magnetization       1.8794388
 augmentation part       14.6506676 magnetization       1.6961228

 Broyden mixing:
  rms(total) = 0.43913E+01    rms(broyden)= 0.43886E+01
  rms(prec ) = 0.99223E+01
  weight for this iteration     100.00

 eigenvalues of (default mixing * dielectric matrix)
  average eigenvalue GAMMA=   0.4101
  0.4101

 Free energy of the ion-electron system (eV)
  ---------------------------------------------------
  alpha Z        PSCENC =       268.56435900
  Ewald energy   TEWEN  =     -3158.39996801
  -Hartree energ DENC   =     -1263.10742934
  -exchange      EXHF   =         0.00000000
  -V(xc)+E(xc)   XCENC  =       189.72080054
  PAW double counting   =      3213.87277893    -3283.63305008
  entropy T*S    EENTRO =         0.00000000
  eigenvalues    EBANDS =      -613.00162276
  atomic energy  EATOM  =      4601.94837920
  Solvation  Ediel_sol  =         0.00000000
  ---------------------------------------------------
  free energy    TOTEN  =       -44.03575253 eV

  energy without entropy =      -44.03575253  energy(sigma->0) =      -44.03575253


--------------------------------------------------------------------------------------------------------




----------------------------------------- Iteration    1(   7)  ---------------------------------------


    POTLOK:  cpu time    0.0570: real time    0.0575
    SETDIJ:  cpu time    0.0120: real time    0.0122
atom =   1  type =  1  l = 0
 
 onsite density matrix
 
spin component  1
 
  1.0090
 
spin component  2
 
  1.0622
 
 occupancies and eigenvectors
 
  o =  1.0090  v =  1.0000  0.0000      0.0000  0.0000
  o =  1.0622  v =  0.0000  1.0000      0.0000  0.0000
atom =   2  type =  2  l = 2
 
 onsite density matrix
 
spin component  1
 
  0.9079  0.0000  0.0000  0.0000  0.0000
  0.0000  0.9079  0.0000  0.0000  0.0000
  0.0000  0.0000  0.6215  0.0000  0.0000
  0.0000  0.0000  0.0000  0.9079  0.0000
  0.0000  0.0000  0.0000  0.0000  0.6215
 
spin component  2
 
  0.3741  0.0000  0.0000  0.0000  0.0000
  0.0000  0.3741  0.0000  0.0000  0.0000
  0.0000  0.0000  0.4501  0.0000  0.0000
  0.0000  0.0000  0.0000  0.3741  0.0000
  0.0000  0.0000  0.0000  0.0000  0.4501
 
 occupancies and eigenvectors
 
  o =  0.3741  v =  0.0000  0.0000  0.0000  0.0000  0.0000  0.0000 -0.6064  0.0000 -0.7951  0.0000      0.0000  0.0000  0.0000  0.0000  0.0000  0.0000  0.0000  0.0000  0.0000  0.0000
  o =  0.3741  v =  0.0000  0.0000  0.0000  0.0000  0.0000  0.0000  0.7951  0.0000 -0.6064  0.0000      0.0000  0.0000  0.0000  0.0000  0.0000  0.0000  0.0000  0.0000  0.0000  0.0000
  o =  0.3741  v =  0.0000  0.0000  0.0000  0.0000  0.0000  1.0000  0.0000  0.0000  0.0000  0.0000      0.0000  0.0000  0.0000  0.0000  0.0000  0.0000  0.0000  0.0000  0.0000  0.0000
  o =  0.4501  v =  0.0000  0.0000  0.0000  0.0000  0.0000  0.0000  0.0000  0.9989  0.0000 -0.0467      0.0000  0.0000  0.0000  0.0000  0.0000  0.0000  0.0000  0.0000  0.0000  0.0000
  o =  0.4501  v =  0.0000  0.0000  0.0000  0.0000  0.0000  0.0000  0.0000 -0.0467  0.0000 -0.9989      0.0000  0.0000  0.0000  0.0000  0.0000  0.0000  0.0000  0.0000  0.0000  0.0000
  o =  0.6215  v =  0.0000  0.0000  0.9945  0.0000 -0.1050  0.0000  0.0000  0.0000  0.0000  0.0000      0.0000  0.0000  0.0000  0.0000  0.0000  0.0000  0.0000  0.0000  0.0000  0.0000
  o =  0.6215  v =  0.0000  0.0000  0.1050  0.0000  0.9945  0.0000  0.0000  0.0000  0.0000  0.0000      0.0000  0.0000  0.0000  0.0000  0.0000  0.0000  0.0000  0.0000  0.0000  0.0000
  o =  0.9079  v =  0.0000  0.5410  0.0000 -0.8410  0.0000  0.0000  0.0000  0.0000  0.0000  0.0000      0.0000  0.0000  0.0000  0.0000  0.0000  0.0000  0.0000  0.0000  0.0000  0.0000
  o =  0.9079  v =  1.0000  0.0000  0.0000  0.0000  0.0000  0.0000  0.0000  0.0000  0.0000  0.0000      0.0000  0.0000  0.0000  0.0000  0.0000  0.0000  0.0000  0.0000  0.0000  0.0000
  o =  0.9079  v =  0.0000 -0.8410  0.0000 -0.5410  0.0000  0.0000  0.0000  0.0000  0.0000  0.0000      0.0000  0.0000  0.0000  0.0000  0.0000  0.0000  0.0000  0.0000  0.0000  0.0000
atom =   3  type =  3  l = 0
 
 onsite density matrix
 
spin component  1
 
  0.8963
 
spin component  2
 
  0.9682
 
 occupancies and eigenvectors
 
  o =  0.8963  v =  1.0000  0.0000      0.0000  0.0000
  o =  0.9682  v =  0.0000  1.0000      0.0000  0.0000
atom =   4  type =  3  l = 0
 
 onsite density matrix
 
spin component  1
 
  0.8963
 
spin component  2
 
  0.9682
 
 occupancies and eigenvectors
 
  o =  0.8963  v =  1.0000  0.0000      0.0000  0.0000
  o =  0.9682  v =  0.0000  1.0000      0.0000  0.0000
atom =   5  type =  3  l = 0
 
 onsite density matrix
 
spin component  1
 
  0.8963
 
spin component  2
 
  0.9682
 
 occupancies and eigenvectors
 
  o =  0.8963  v =  1.0000  0.0000      0.0000  0.0000
  o =  0.9682  v =  0.0000  1.0000      0.0000  0.0000
    EDDIAG:  cpu time    0.0830: real time    0.0829
  RMM-DIIS:  cpu time    0.1850: real time    0.1852
    ORTHCH:  cpu time    0.0130: real time    0.0124
 BZINTS: Fermi energy:  4.327144; 42.000000 electrons
         Band energy:-530.011785;  BLOECHL correction: -0.046516
       DOS:  cpu time    0.0120: real time    0.0119
    CHARGE:  cpu time    0.0210: real time    0.0215
    MIXING:  cpu time    0.0010: real time    0.0004
    --------------------------------------------
      LOOP:  cpu time    0.3859: real time    0.3864

 eigenvalue-minimisations  :  1145
 total energy-change (2. order) : 0.1172974E+02  (-0.3342251E+01)
 number of electron      41.9999764 magnetization       2.9210814
 augmentation part       12.7051047 magnetization       1.6342003

 Broyden mixing:
  rms(total) = 0.17870E+01    rms(broyden)= 0.17854E+01
  rms(prec ) = 0.32059E+01
  weight for this iteration     100.00

 eigenvalues of (default mixing * dielectric matrix)
  average eigenvalue GAMMA=   0.4280
  0.2069  0.6491

 Free energy of the ion-electron system (eV)
  ---------------------------------------------------
  alpha Z        PSCENC =       268.56435900
  Ewald energy   TEWEN  =     -3158.39996801
  -Hartree energ DENC   =     -1321.75325290
  -exchange      EXHF   =         0.00000000
  -V(xc)+E(xc)   XCENC  =       190.08186262
  PAW double counting   =      3336.66752817    -3419.40313089
  entropy T*S    EENTRO =         0.00000000
  eigenvalues    EBANDS =      -530.01178494
  atomic energy  EATOM  =      4601.94837920
  Solvation  Ediel_sol  =         0.00000000
  ---------------------------------------------------
  free energy    TOTEN  =       -32.30600775 eV

  energy without entropy =      -32.30600775  energy(sigma->0) =      -32.30600775


--------------------------------------------------------------------------------------------------------




----------------------------------------- Iteration    1(   8)  ---------------------------------------


    POTLOK:  cpu time    0.0570: real time    0.0573
    SETDIJ:  cpu time    0.0120: real time    0.0122
atom =   1  type =  1  l = 0
 
 onsite density matrix
 
spin component  1
 
  1.0314
 
spin component  2
 
  1.0200
 
 occupancies and eigenvectors
 
  o =  1.0200  v =  0.0000  1.0000      0.0000  0.0000
  o =  1.0314  v =  1.0000  0.0000      0.0000  0.0000
atom =   2  type =  2  l = 2
 
 onsite density matrix
 
spin component  1
 
  0.9677  0.0000  0.0000  0.0000  0.0000
  0.0000  0.9677  0.0000  0.0000  0.0000
  0.0000  0.0000  0.7357  0.0000  0.0000
  0.0000  0.0000  0.0000  0.9677  0.0000
  0.0000  0.0000  0.0000  0.0000  0.7357
 
spin component  2
 
  0.2833  0.0000  0.0000  0.0000  0.0000
  0.0000  0.2833  0.0000  0.0000  0.0000
  0.0000  0.0000  0.3275  0.0000  0.0000
  0.0000  0.0000  0.0000  0.2833  0.0000
  0.0000  0.0000  0.0000  0.0000  0.3275
 
 occupancies and eigenvectors
 
  o =  0.2833  v =  0.0000  0.0000  0.0000  0.0000  0.0000  1.0000  0.0000  0.0000  0.0000  0.0000      0.0000  0.0000  0.0000  0.0000  0.0000  0.0000  0.0000  0.0000  0.0000  0.0000
  o =  0.2833  v =  0.0000  0.0000  0.0000  0.0000  0.0000  0.0000  0.9649  0.0000 -0.2627  0.0000      0.0000  0.0000  0.0000  0.0000  0.0000  0.0000  0.0000  0.0000  0.0000  0.0000
  o =  0.2833  v =  0.0000  0.0000  0.0000  0.0000  0.0000  0.0000 -0.2627  0.0000 -0.9649  0.0000      0.0000  0.0000  0.0000  0.0000  0.0000  0.0000  0.0000  0.0000  0.0000  0.0000
  o =  0.3275  v =  0.0000  0.0000  0.0000  0.0000  0.0000  0.0000  0.0000  0.9995  0.0000 -0.0310      0.0000  0.0000  0.0000  0.0000  0.0000  0.0000  0.0000  0.0000  0.0000  0.0000
  o =  0.3275  v =  0.0000  0.0000  0.0000  0.0000  0.0000  0.0000  0.0000  0.0310  0.0000  0.9995      0.0000  0.0000  0.0000  0.0000  0.0000  0.0000  0.0000  0.0000  0.0000  0.0000
  o =  0.7357  v =  0.0000  0.0000  0.0830  0.0000  0.9966  0.0000  0.0000  0.0000  0.0000  0.0000      0.0000  0.0000  0.0000  0.0000  0.0000  0.0000  0.0000  0.0000  0.0000  0.0000
  o =  0.7357  v =  0.0000  0.0000  0.9966  0.0000 -0.0830  0.0000  0.0000  0.0000  0.0000  0.0000      0.0000  0.0000  0.0000  0.0000  0.0000  0.0000  0.0000  0.0000  0.0000  0.0000
  o =  0.9677  v =  0.0000 -0.4630  0.0000 -0.8864  0.0000  0.0000  0.0000  0.0000  0.0000  0.0000      0.0000  0.0000  0.0000  0.0000  0.0000  0.0000  0.0000  0.0000  0.0000  0.0000
  o =  0.9677  v =  0.0000  0.8864  0.0000 -0.4630  0.0000  0.0000  0.0000  0.0000  0.0000  0.0000      0.0000  0.0000  0.0000  0.0000  0.0000  0.0000  0.0000  0.0000  0.0000  0.0000
  o =  0.9677  v =  1.0000  0.0000  0.0000  0.0000  0.0000  0.0000  0.0000  0.0000  0.0000  0.0000      0.0000  0.0000  0.0000  0.0000  0.0000  0.0000  0.0000  0.0000  0.0000  0.0000
atom =   3  type =  3  l = 0
 
 onsite density matrix
 
spin component  1
 
  0.9435
 
spin component  2
 
  0.9221
 
 occupancies and eigenvectors
 
  o =  0.9221  v =  0.0000  1.0000      0.0000  0.0000
  o =  0.9435  v =  1.0000  0.0000      0.0000  0.0000
atom =   4  type =  3  l = 0
 
 onsite density matrix
 
spin component  1
 
  0.9435
 
spin component  2
 
  0.9221
 
 occupancies and eigenvectors
 
  o =  0.9221  v =  0.0000  1.0000      0.0000  0.0000
  o =  0.9435  v =  1.0000  0.0000      0.0000  0.0000
atom =   5  type =  3  l = 0
 
 onsite density matrix
 
spin component  1
 
  0.9435
 
spin component  2
 
  0.9221
 
 occupancies and eigenvectors
 
  o =  0.9221  v =  0.0000  1.0000      0.0000  0.0000
  o =  0.9435  v =  1.0000  0.0000      0.0000  0.0000
    EDDIAG:  cpu time    0.0850: real time    0.0856
  RMM-DIIS:  cpu time    0.1950: real time    0.1962
    ORTHCH:  cpu time    0.0130: real time    0.0126
 BZINTS: Fermi energy:  3.049650; 42.000000 electrons
         Band energy:-540.124588;  BLOECHL correction: -0.054649
       DOS:  cpu time    0.0110: real time    0.0116
    CHARGE:  cpu time    0.0220: real time    0.0218
    MIXING:  cpu time    0.0010: real time    0.0005
    --------------------------------------------
      LOOP:  cpu time    0.3969: real time    0.3998

 eigenvalue-minimisations  :  1197
 total energy-change (2. order) : 0.9907250E-01  (-0.6288860E-01)
 number of electron      41.9999760 magnetization       3.5547663
 augmentation part       12.7604294 magnetization       2.3644465

 Broyden mixing:
  rms(total) = 0.11404E+01    rms(broyden)= 0.11402E+01
  rms(prec ) = 0.23855E+01
  weight for this iteration     100.00

 eigenvalues of (default mixing * dielectric matrix)
  average eigenvalue GAMMA=   0.7489
  0.3120  1.1829  0.7517

 Free energy of the ion-electron system (eV)
  ---------------------------------------------------
  alpha Z        PSCENC =       268.56435900
  Ewald energy   TEWEN  =     -3158.39996801
  -Hartree energ DENC   =     -1311.14779409
  -exchange      EXHF   =         0.00000000
  -V(xc)+E(xc)   XCENC  =       190.34078484
  PAW double counting   =      3351.00449473    -3434.39260341
  entropy T*S    EENTRO =         0.00000000
  eigenvalues    EBANDS =      -540.12458751
  atomic energy  EATOM  =      4601.94837920
  Solvation  Ediel_sol  =         0.00000000
  ---------------------------------------------------
  free energy    TOTEN  =       -32.20693525 eV

  energy without entropy =      -32.20693525  energy(sigma->0) =      -32.20693525


--------------------------------------------------------------------------------------------------------




----------------------------------------- Iteration    1(   9)  ---------------------------------------


    POTLOK:  cpu time    0.0560: real time    0.0572
    SETDIJ:  cpu time    0.0130: real time    0.0123
atom =   1  type =  1  l = 0
 
 onsite density matrix
 
spin component  1
 
  1.0029
 
spin component  2
 
  1.0196
 
 occupancies and eigenvectors
 
  o =  1.0029  v =  1.0000  0.0000      0.0000  0.0000
  o =  1.0196  v =  0.0000  1.0000      0.0000  0.0000
atom =   2  type =  2  l = 2
 
 onsite density matrix
 
spin component  1
 
  0.9699  0.0000  0.0000  0.0000  0.0000
  0.0000  0.9699  0.0000  0.0000  0.0000
  0.0000  0.0000  0.8121  0.0000  0.0000
  0.0000  0.0000  0.0000  0.9699  0.0000
  0.0000  0.0000  0.0000  0.0000  0.8121
 
spin component  2
 
  0.2237  0.0000  0.0000  0.0000  0.0000
  0.0000  0.2237  0.0000  0.0000  0.0000
  0.0000  0.0000  0.2577  0.0000  0.0000
  0.0000  0.0000  0.0000  0.2237  0.0000
  0.0000  0.0000  0.0000  0.0000  0.2577
 
 occupancies and eigenvectors
 
  o =  0.2237  v =  0.0000  0.0000  0.0000  0.0000  0.0000  0.0000  0.0352  0.0000 -0.9994  0.0000      0.0000  0.0000  0.0000  0.0000  0.0000  0.0000  0.0000  0.0000  0.0000  0.0000
  o =  0.2237  v =  0.0000  0.0000  0.0000  0.0000  0.0000  0.0000 -0.9994  0.0000 -0.0352  0.0000      0.0000  0.0000  0.0000  0.0000  0.0000  0.0000  0.0000  0.0000  0.0000  0.0000
  o =  0.2237  v =  0.0000  0.0000  0.0000  0.0000  0.0000  1.0000  0.0000  0.0000  0.0000  0.0000      0.0000  0.0000  0.0000  0.0000  0.0000  0.0000  0.0000  0.0000  0.0000  0.0000
  o =  0.2577  v =  0.0000  0.0000  0.0000  0.0000  0.0000  0.0000  0.0000 -0.1190  0.0000 -0.9929      0.0000  0.0000  0.0000  0.0000  0.0000  0.0000  0.0000  0.0000  0.0000  0.0000
  o =  0.2577  v =  0.0000  0.0000  0.0000  0.0000  0.0000  0.0000  0.0000  0.9929  0.0000 -0.1190      0.0000  0.0000  0.0000  0.0000  0.0000  0.0000  0.0000  0.0000  0.0000  0.0000
  o =  0.8121  v =  0.0000  0.0000 -0.9965  0.0000  0.0835  0.0000  0.0000  0.0000  0.0000  0.0000      0.0000  0.0000  0.0000  0.0000  0.0000  0.0000  0.0000  0.0000  0.0000  0.0000
  o =  0.8121  v =  0.0000  0.0000 -0.0835  0.0000 -0.9965  0.0000  0.0000  0.0000  0.0000  0.0000      0.0000  0.0000  0.0000  0.0000  0.0000  0.0000  0.0000  0.0000  0.0000  0.0000
  o =  0.9699  v =  0.0000 -0.8159  0.0000  0.5783  0.0000  0.0000  0.0000  0.0000  0.0000  0.0000      0.0000  0.0000  0.0000  0.0000  0.0000  0.0000  0.0000  0.0000  0.0000  0.0000
  o =  0.9699  v =  0.0000  0.5783  0.0000  0.8159  0.0000  0.0000  0.0000  0.0000  0.0000  0.0000      0.0000  0.0000  0.0000  0.0000  0.0000  0.0000  0.0000  0.0000  0.0000  0.0000
  o =  0.9699  v =  1.0000  0.0000  0.0000  0.0000  0.0000  0.0000  0.0000  0.0000  0.0000  0.0000      0.0000  0.0000  0.0000  0.0000  0.0000  0.0000  0.0000  0.0000  0.0000  0.0000
atom =   3  type =  3  l = 0
 
 onsite density matrix
 
spin component  1
 
  0.9229
 
spin component  2
 
  0.9417
 
 occupancies and eigenvectors
 
  o =  0.9229  v =  1.0000  0.0000      0.0000  0.0000
  o =  0.9417  v =  0.0000  1.0000      0.0000  0.0000
atom =   4  type =  3  l = 0
 
 onsite density matrix
 
spin component  1
 
  0.9229
 
spin component  2
 
  0.9417
 
 occupancies and eigenvectors
 
  o =  0.9229  v =  1.0000  0.0000      0.0000  0.0000
  o =  0.9417  v =  0.0000  1.0000      0.0000  0.0000
atom =   5  type =  3  l = 0
 
 onsite density matrix
 
spin component  1
 
  0.9229
 
spin component  2
 
  0.9417
 
 occupancies and eigenvectors
 
  o =  0.9229  v =  1.0000  0.0000      0.0000  0.0000
  o =  0.9417  v =  0.0000  1.0000      0.0000  0.0000
    EDDIAG:  cpu time    0.0830: real time    0.0830
  RMM-DIIS:  cpu time    0.1880: real time    0.1882
    ORTHCH:  cpu time    0.0130: real time    0.0125
 BZINTS: Fermi energy:  2.209765; 42.000000 electrons
         Band energy:-555.329551;  BLOECHL correction: -0.047455
       DOS:  cpu time    0.0120: real time    0.0124
    CHARGE:  cpu time    0.0220: real time    0.0216
    MIXING:  cpu time    0.0000: real time    0.0005
    --------------------------------------------
      LOOP:  cpu time    0.3879: real time    0.3899

 eigenvalue-minimisations  :  1156
 total energy-change (2. order) : 0.8095670E+00  (-0.1583374E+00)
 number of electron      41.9999757 magnetization       3.8618490
 augmentation part       12.9035826 magnetization       2.7655742

 Broyden mixing:
  rms(total) = 0.53687E+00    rms(broyden)= 0.53496E+00
  rms(prec ) = 0.99253E+00
  weight for this iteration     100.00

 eigenvalues of (default mixing * dielectric matrix)
  average eigenvalue GAMMA=   0.8899
  1.8015  0.3086  0.8582  0.5912

 Free energy of the ion-electron system (eV)
  ---------------------------------------------------
  alpha Z        PSCENC =       268.56435900
  Ewald energy   TEWEN  =     -3158.39996801
  -Hartree energ DENC   =     -1294.05221028
  -exchange      EXHF   =         0.00000000
  -V(xc)+E(xc)   XCENC  =       190.46745529
  PAW double counting   =      3375.71605985    -3460.31189222
  entropy T*S    EENTRO =         0.00000000
  eigenvalues    EBANDS =      -555.32955104
  atomic energy  EATOM  =      4601.94837920
  Solvation  Ediel_sol  =         0.00000000
  ---------------------------------------------------
  free energy    TOTEN  =       -31.39736821 eV

  energy without entropy =      -31.39736821  energy(sigma->0) =      -31.39736821


--------------------------------------------------------------------------------------------------------




----------------------------------------- Iteration    1(  10)  ---------------------------------------


    POTLOK:  cpu time    0.0570: real time    0.0572
    SETDIJ:  cpu time    0.0120: real time    0.0122
atom =   1  type =  1  l = 0
 
 onsite density matrix
 
spin component  1
 
  1.0002
 
spin component  2
 
  1.0000
 
 occupancies and eigenvectors
 
  o =  1.0000  v =  0.0000  1.0000      0.0000  0.0000
  o =  1.0002  v =  1.0000  0.0000      0.0000  0.0000
atom =   2  type =  2  l = 2
 
 onsite density matrix
 
spin component  1
 
  0.9926  0.0000  0.0000  0.0000  0.0000
  0.0000  0.9926  0.0000  0.0000  0.0000
  0.0000  0.0000  0.8878  0.0000  0.0000
  0.0000  0.0000  0.0000  0.9926  0.0000
  0.0000  0.0000  0.0000  0.0000  0.8878
 
spin component  2
 
  0.1366  0.0000  0.0000  0.0000  0.0000
  0.0000  0.1366  0.0000  0.0000  0.0000
  0.0000  0.0000  0.2192  0.0000  0.0000
  0.0000  0.0000  0.0000  0.1366  0.0000
  0.0000  0.0000  0.0000  0.0000  0.2192
 
 occupancies and eigenvectors
 
  o =  0.1366  v =  0.0000  0.0000  0.0000  0.0000  0.0000  0.0000 -0.9997  0.0000 -0.0233  0.0000      0.0000  0.0000  0.0000  0.0000  0.0000  0.0000  0.0000  0.0000  0.0000  0.0000
  o =  0.1366  v =  0.0000  0.0000  0.0000  0.0000  0.0000  0.0000 -0.0233  0.0000  0.9997  0.0000      0.0000  0.0000  0.0000  0.0000  0.0000  0.0000  0.0000  0.0000  0.0000  0.0000
  o =  0.1366  v =  0.0000  0.0000  0.0000  0.0000  0.0000  1.0000  0.0000  0.0000  0.0000  0.0000      0.0000  0.0000  0.0000  0.0000  0.0000  0.0000  0.0000  0.0000  0.0000  0.0000
  o =  0.2192  v =  0.0000  0.0000  0.0000  0.0000  0.0000  0.0000  0.0000  0.9754  0.0000 -0.2204      0.0000  0.0000  0.0000  0.0000  0.0000  0.0000  0.0000  0.0000  0.0000  0.0000
  o =  0.2192  v =  0.0000  0.0000  0.0000  0.0000  0.0000  0.0000  0.0000 -0.2204  0.0000 -0.9754      0.0000  0.0000  0.0000  0.0000  0.0000  0.0000  0.0000  0.0000  0.0000  0.0000
  o =  0.8878  v =  0.0000  0.0000  0.0998  0.0000  0.9950  0.0000  0.0000  0.0000  0.0000  0.0000      0.0000  0.0000  0.0000  0.0000  0.0000  0.0000  0.0000  0.0000  0.0000  0.0000
  o =  0.8878  v =  0.0000  0.0000 -0.9950  0.0000  0.0998  0.0000  0.0000  0.0000  0.0000  0.0000      0.0000  0.0000  0.0000  0.0000  0.0000  0.0000  0.0000  0.0000  0.0000  0.0000
  o =  0.9926  v =  0.0000 -0.6343  0.0000 -0.7731  0.0000  0.0000  0.0000  0.0000  0.0000  0.0000      0.0000  0.0000  0.0000  0.0000  0.0000  0.0000  0.0000  0.0000  0.0000  0.0000
  o =  0.9926  v =  0.0000  0.7731  0.0000 -0.6343  0.0000  0.0000  0.0000  0.0000  0.0000  0.0000      0.0000  0.0000  0.0000  0.0000  0.0000  0.0000  0.0000  0.0000  0.0000  0.0000
  o =  0.9926  v =  1.0000  0.0000  0.0000  0.0000  0.0000  0.0000  0.0000  0.0000  0.0000  0.0000      0.0000  0.0000  0.0000  0.0000  0.0000  0.0000  0.0000  0.0000  0.0000  0.0000
atom =   3  type =  3  l = 0
 
 onsite density matrix
 
spin component  1
 
  0.9344
 
spin component  2
 
  0.9269
 
 occupancies and eigenvectors
 
  o =  0.9269  v =  0.0000  1.0000      0.0000  0.0000
  o =  0.9344  v =  1.0000  0.0000      0.0000  0.0000
atom =   4  type =  3  l = 0
 
 onsite density matrix
 
spin component  1
 
  0.9344
 
spin component  2
 
  0.9269
 
 occupancies and eigenvectors
 
  o =  0.9269  v =  0.0000  1.0000      0.0000  0.0000
  o =  0.9344  v =  1.0000  0.0000      0.0000  0.0000
atom =   5  type =  3  l = 0
 
 onsite density matrix
 
spin component  1
 
  0.9344
 
spin component  2
 
  0.9269
 
 occupancies and eigenvectors
 
  o =  0.9269  v =  0.0000  1.0000      0.0000  0.0000
  o =  0.9344  v =  1.0000  0.0000      0.0000  0.0000
    EDDIAG:  cpu time    0.0830: real time    0.0831
  RMM-DIIS:  cpu time    0.1890: real time    0.1895
    ORTHCH:  cpu time    0.0130: real time    0.0126
 BZINTS: Fermi energy:  1.983115; 42.000000 electrons
         Band energy:-568.712558;  BLOECHL correction: -0.037620
       DOS:  cpu time    0.0130: real time    0.0125
    CHARGE:  cpu time    0.0210: real time    0.0216
    MIXING:  cpu time    0.0010: real time    0.0006
    --------------------------------------------
      LOOP:  cpu time    0.3909: real time    0.3913

 eigenvalue-minimisations  :  1160
 total energy-change (2. order) : 0.5823952E-01  (-0.7526967E-01)
 number of electron      41.9999753 magnetization       4.1783281
 augmentation part       13.0367985 magnetization       3.0631406

 Broyden mixing:
  rms(total) = 0.11455E+00    rms(broyden)= 0.11099E+00
  rms(prec ) = 0.13527E+00
  weight for this iteration     100.00

 eigenvalues of (default mixing * dielectric matrix)
  average eigenvalue GAMMA=   0.9732
  1.6263  1.6263  0.3082  0.6527  0.6527

 Free energy of the ion-electron system (eV)
  ---------------------------------------------------
  alpha Z        PSCENC =       268.56435900
  Ewald energy   TEWEN  =     -3158.39996801
  -Hartree energ DENC   =     -1279.98950077
  -exchange      EXHF   =         0.00000000
  -V(xc)+E(xc)   XCENC  =       190.53660543
  PAW double counting   =      3396.54029783    -3481.82674360
  entropy T*S    EENTRO =         0.00000000
  eigenvalues    EBANDS =      -568.71255776
  atomic energy  EATOM  =      4601.94837920
  Solvation  Ediel_sol  =         0.00000000
  ---------------------------------------------------
  free energy    TOTEN  =       -31.33912868 eV

  energy without entropy =      -31.33912868  energy(sigma->0) =      -31.33912868


--------------------------------------------------------------------------------------------------------




----------------------------------------- Iteration    1(  11)  ---------------------------------------


    POTLOK:  cpu time    0.0580: real time    0.0573
    SETDIJ:  cpu time    0.0120: real time    0.0122
atom =   1  type =  1  l = 0
 
 onsite density matrix
 
spin component  1
 
  0.9955
 
spin component  2
 
  0.9982
 
 occupancies and eigenvectors
 
  o =  0.9955  v =  1.0000  0.0000      0.0000  0.0000
  o =  0.9982  v =  0.0000  1.0000      0.0000  0.0000
atom =   2  type =  2  l = 2
 
 onsite density matrix
 
spin component  1
 
  0.9805  0.0000  0.0000  0.0000  0.0000
  0.0000  0.9805  0.0000  0.0000  0.0000
  0.0000  0.0000  0.9090  0.0000  0.0000
  0.0000  0.0000  0.0000  0.9805  0.0000
  0.0000  0.0000  0.0000  0.0000  0.9090
 
spin component  2
 
  0.1207  0.0000  0.0000  0.0000  0.0000
  0.0000  0.1207  0.0000  0.0000  0.0000
  0.0000  0.0000  0.2231  0.0000  0.0000
  0.0000  0.0000  0.0000  0.1207  0.0000
  0.0000  0.0000  0.0000  0.0000  0.2231
 
 occupancies and eigenvectors
 
  o =  0.1207  v =  0.0000  0.0000  0.0000  0.0000  0.0000  0.0000  0.0415  0.0000 -0.9991  0.0000      0.0000  0.0000  0.0000  0.0000  0.0000  0.0000  0.0000  0.0000  0.0000  0.0000
  o =  0.1207  v =  0.0000  0.0000  0.0000  0.0000  0.0000  0.0000 -0.9991  0.0000 -0.0415  0.0000      0.0000  0.0000  0.0000  0.0000  0.0000  0.0000  0.0000  0.0000  0.0000  0.0000
  o =  0.1207  v =  0.0000  0.0000  0.0000  0.0000  0.0000  1.0000  0.0000  0.0000  0.0000  0.0000      0.0000  0.0000  0.0000  0.0000  0.0000  0.0000  0.0000  0.0000  0.0000  0.0000
  o =  0.2231  v =  0.0000  0.0000  0.0000  0.0000  0.0000  0.0000  0.0000 -0.0405  0.0000 -0.9992      0.0000  0.0000  0.0000  0.0000  0.0000  0.0000  0.0000  0.0000  0.0000  0.0000
  o =  0.2231  v =  0.0000  0.0000  0.0000  0.0000  0.0000  0.0000  0.0000  0.9992  0.0000 -0.0405      0.0000  0.0000  0.0000  0.0000  0.0000  0.0000  0.0000  0.0000  0.0000  0.0000
  o =  0.9090  v =  0.0000  0.0000  1.0000  0.0000 -0.0024  0.0000  0.0000  0.0000  0.0000  0.0000      0.0000  0.0000  0.0000  0.0000  0.0000  0.0000  0.0000  0.0000  0.0000  0.0000
  o =  0.9090  v =  0.0000  0.0000 -0.0024  0.0000 -1.0000  0.0000  0.0000  0.0000  0.0000  0.0000      0.0000  0.0000  0.0000  0.0000  0.0000  0.0000  0.0000  0.0000  0.0000  0.0000
  o =  0.9805  v =  0.0000 -0.3908  0.0000  0.9205  0.0000  0.0000  0.0000  0.0000  0.0000  0.0000      0.0000  0.0000  0.0000  0.0000  0.0000  0.0000  0.0000  0.0000  0.0000  0.0000
  o =  0.9805  v =  0.0000 -0.9205  0.0000 -0.3908  0.0000  0.0000  0.0000  0.0000  0.0000  0.0000      0.0000  0.0000  0.0000  0.0000  0.0000  0.0000  0.0000  0.0000  0.0000  0.0000
  o =  0.9805  v =  1.0000  0.0000  0.0000  0.0000  0.0000  0.0000  0.0000  0.0000  0.0000  0.0000      0.0000  0.0000  0.0000  0.0000  0.0000  0.0000  0.0000  0.0000  0.0000  0.0000
atom =   3  type =  3  l = 0
 
 onsite density matrix
 
spin component  1
 
  0.9319
 
spin component  2
 
  0.9276
 
 occupancies and eigenvectors
 
  o =  0.9276  v =  0.0000  1.0000      0.0000  0.0000
  o =  0.9319  v =  1.0000  0.0000      0.0000  0.0000
atom =   4  type =  3  l = 0
 
 onsite density matrix
 
spin component  1
 
  0.9319
 
spin component  2
 
  0.9276
 
 occupancies and eigenvectors
 
  o =  0.9276  v =  0.0000  1.0000      0.0000  0.0000
  o =  0.9319  v =  1.0000  0.0000      0.0000  0.0000
atom =   5  type =  3  l = 0
 
 onsite density matrix
 
spin component  1
 
  0.9319
 
spin component  2
 
  0.9276
 
 occupancies and eigenvectors
 
  o =  0.9276  v =  0.0000  1.0000      0.0000  0.0000
  o =  0.9319  v =  1.0000  0.0000      0.0000  0.0000
    EDDIAG:  cpu time    0.0830: real time    0.0832
  RMM-DIIS:  cpu time    0.1840: real time    0.1839
    ORTHCH:  cpu time    0.0130: real time    0.0125
 BZINTS: Fermi energy:  1.933329; 41.996394 electrons
         Band energy:-570.751371;  BLOECHL correction: -0.048677
       DOS:  cpu time    0.0180: real time    0.0177
    CHARGE:  cpu time    0.0210: real time    0.0215
    MIXING:  cpu time    0.0010: real time    0.0006
    --------------------------------------------
      LOOP:  cpu time    0.3899: real time    0.3911

 eigenvalue-minimisations  :  1138
 total energy-change (2. order) :-0.4934296E-01  (-0.5375572E-02)
 number of electron      41.9963689 magnetization       4.2881394
 augmentation part       13.0592512 magnetization       3.0488770

 Broyden mixing:
  rms(total) = 0.13154E+00    rms(broyden)= 0.13104E+00
  rms(prec ) = 0.23157E+00
  weight for this iteration     100.00

 eigenvalues of (default mixing * dielectric matrix)
[...]
     10     -12.4618      1.00000
     11      -2.3065      1.00000
     12      -1.4873      1.00000
     13      -1.3350      1.00000
     14      -0.5872      1.00000
     15       0.2052      1.00000
     16       0.3201      1.00000
     17       1.0580      1.00000
     18       1.0991      1.00000
     19       1.5616      1.01407
     20       3.9635      0.00000
     21       4.0617      0.00000
     22       4.1753      0.00000
     23       4.3812      0.00000
     24       5.3640      0.00000
     25       9.0057      0.00000
     26       9.3068      0.00000
     27       9.5264      0.00000
     28      10.7241      0.00000

 k-point     5 :       0.4167    0.2500    0.0833
  band No.  band energies     occupation 
      1     -50.7331      1.00000
      2     -50.7324      1.00000
      3     -50.7318      1.00000
      4     -30.6849      1.00000
      5     -15.0521      1.00000
      6     -14.3782      1.00000
      7     -14.0201      1.00000
      8     -12.7031      1.00000
      9     -12.5339      1.00000
     10     -12.3927      1.00000
     11      -2.5929      1.00000
     12      -1.5265      1.00000
     13      -1.2223      1.00000
     14      -1.1505      1.00000
     15      -0.1745      1.00000
     16       0.3097      1.00000
     17       0.8009      1.00000
     18       1.0156      1.00000
     19       1.6548      1.03620
     20       4.0214      0.00000
     21       4.3866      0.00000
     22       4.4361      0.00000
     23       4.4906      0.00000
     24       5.9211      0.00000
     25       9.6050      0.00000
     26       9.9934      0.00000
     27      10.2203      0.00000
     28      10.8495      0.00000

 k-point     6 :       0.4167    0.4167    0.0833
  band No.  band energies     occupation 
      1     -50.7330      1.00000
      2     -50.7329      1.00000
      3     -50.7316      1.00000
      4     -30.6788      1.00000
      5     -14.7534      1.00000
      6     -14.4959      1.00000
      7     -14.2131      1.00000
      8     -12.6809      1.00000
      9     -12.4666      1.00000
     10     -12.4475      1.00000
     11      -2.9220      1.00000
     12      -1.6392      1.00000
     13      -1.6342      1.00000
     14      -0.9708      1.00000
     15      -0.2472      1.00000
     16      -0.1388      1.00000
     17       0.8546      1.00000
     18       0.9144      1.00000
     19       2.0582      0.32517
     20       4.4005      0.00000
     21       4.4354      0.00000
     22       4.5249      0.00000
     23       4.6269      0.00000
     24       6.6083      0.00000
     25       9.7721      0.00000
     26      10.0894      0.00000
     27      10.8824      0.00000
     28      10.9271      0.00000

 k-point     7 :       0.2500    0.2500    0.2500
  band No.  band energies     occupation 
      1     -50.7325      1.00000
      2     -50.7324      1.00000
      3     -50.7324      1.00000
      4     -30.6852      1.00000
      5     -15.0225      1.00000
      6     -14.1751      1.00000
      7     -14.1752      1.00000
      8     -12.6635      1.00000
      9     -12.6635      1.00000
     10     -12.4310      1.00000
     11      -2.5707      1.00000
     12      -1.4487      1.00000
     13      -1.4487      1.00000
     14      -0.6849      1.00000
     15      -0.3604      1.00000
     16      -0.3604      1.00000
     17       1.3534      1.00061
     18       1.3534      1.00088
     19       1.6956      1.02888
     20       4.1750      0.00000
     21       4.2521      0.00000
     22       4.2521      0.00000
     23       5.3463      0.00000
     24       5.3463      0.00000
     25       9.4576      0.00000
     26       9.4597      0.00000
     27       9.5002      0.00000
     28      10.7753      0.00000

 k-point     8 :       0.4167    0.2500    0.2500
  band No.  band energies     occupation 
      1     -50.7331      1.00000
      2     -50.7324      1.00000
      3     -50.7324      1.00000
      4     -30.6790      1.00000
      5     -14.8698      1.00000
      6     -14.3516      1.00000
      7     -14.0649      1.00000
      8     -12.7868      1.00000
      9     -12.5737      1.00000
     10     -12.4739      1.00000
     11      -2.8596      1.00000
     12      -1.5226      1.00000
     13      -1.3969      1.00000
     14      -1.1401      1.00000
     15      -0.7110      1.00000
     16      -0.3501      1.00000
     17       1.3627      1.00554
     18       1.4519      1.00578
     19       1.7792      0.95915
     20       4.2628      0.00000
     21       4.4984      0.00000
     22       4.5327      0.00000
     23       5.3120      0.00000
     24       6.0641      0.00000
     25       9.7280      0.00000
     26       9.9054      0.00000
     27       9.9105      0.00000
     28      10.4714      0.00000

 k-point     9 :       0.4167    0.4167    0.2500
  band No.  band energies     occupation 
      1     -50.7331      1.00000
      2     -50.7330      1.00000
      3     -50.7324      1.00000
      4     -30.6732      1.00000
      5     -14.5980      1.00000
      6     -14.3607      1.00000
      7     -14.1692      1.00000
      8     -12.8043      1.00000
      9     -12.6498      1.00000
     10     -12.5756      1.00000
     11      -3.1957      1.00000
     12      -1.6243      1.00000
     13      -1.3830      1.00000
     14      -1.3556      1.00000
     15      -0.7280      1.00000
     16      -0.7180      1.00000
     17       1.5524      1.02240
     18       1.5935      1.02230
     19       2.0909      0.14081
     20       4.5439      0.00000
     21       4.5635      0.00000
     22       4.6776      0.00000
     23       5.6102      0.00000
     24       6.6002      0.00000
     25       9.4584      0.00000
     26       9.7964      0.00000
     27       9.8723      0.00000
     28      10.6606      0.00000

 k-point    10 :       0.4167    0.4167    0.4167
  band No.  band energies     occupation 
      1     -50.7331      1.00000
      2     -50.7328      1.00000
      3     -50.7328      1.00000
      4     -30.6675      1.00000
      5     -14.3675      1.00000
      6     -14.1888      1.00000
      7     -14.1888      1.00000
      8     -12.8675      1.00000
      9     -12.8675      1.00000
     10     -12.7647      1.00000
     11      -3.5513      1.00000
     12      -1.6122      1.00000
     13      -1.6122      1.00000
     14      -1.1228      1.00000
     15      -0.9955      1.00000
     16      -0.9955      1.00000
     17       2.0426      0.61261
     18       2.0426      0.59053
     19       2.1551     -0.01507
     20       4.7229      0.00000
     21       4.7375      0.00000
     22       4.7375      0.00000
     23       6.5869      0.00000
     24       6.5869      0.00000
     25       9.0653      0.00000
     26       9.1562      0.00000
     27       9.1563      0.00000
     28      11.3473      0.00000


--------------------------------------------------------------------------------------------------------


 soft charge-density along one line, spin component           1
         0         1         2         3         4         5         6         7         8         9
 total charge-density along one line
 
 soft charge-density along one line, spin component           2
         0         1         2         3         4         5         6         7         8         9
 total charge-density along one line
 
 pseudopotential strength for first ion, spin component:           1
-11.292  -7.963   0.000   0.000   0.000   0.000   0.000   0.000
 -7.963  -6.043   0.000   0.000   0.000   0.000   0.000   0.000
  0.000   0.000 -14.810   0.000   0.000   0.115   0.000   0.000
  0.000   0.000   0.000 -14.810   0.000   0.000   0.115   0.000
  0.000   0.000   0.000   0.000 -14.810   0.000   0.000   0.115
  0.000   0.000   0.115   0.000   0.000   0.046   0.000   0.000
  0.000   0.000   0.000   0.115   0.000   0.000   0.046   0.000
  0.000   0.000   0.000   0.000   0.115   0.000   0.000   0.046
  0.000   0.000   0.000   0.000   0.000   0.000   0.000   0.000
  0.000   0.000   0.000   0.000   0.000   0.000   0.000   0.000
  0.000   0.000   0.000   0.000   0.000   0.000   0.000   0.000
  0.000   0.000   0.000   0.000   0.000   0.000   0.000   0.000
  0.000   0.000   0.000   0.000   0.000   0.000   0.000   0.000
  0.000   0.000   0.000   0.000   0.000   0.000   0.000   0.000
  0.000   0.000   0.000   0.000   0.000   0.000   0.000   0.000
  0.000   0.000   0.000   0.000   0.000   0.000   0.000   0.000
  0.000   0.000   0.000   0.000   0.000   0.000   0.000   0.000
  0.000   0.000   0.000   0.000   0.000   0.000   0.000   0.000
 pseudopotential strength for first ion, spin component:           2
-11.292  -7.963   0.000   0.000   0.000   0.000   0.000   0.000
 -7.963  -6.043   0.000   0.000   0.000   0.000   0.000   0.000
  0.000   0.000 -14.809   0.000   0.000   0.115   0.000   0.000
  0.000   0.000   0.000 -14.809   0.000   0.000   0.115   0.000
  0.000   0.000   0.000   0.000 -14.809   0.000   0.000   0.115
  0.000   0.000   0.115   0.000   0.000   0.046   0.000   0.000
  0.000   0.000   0.000   0.115   0.000   0.000   0.046   0.000
  0.000   0.000   0.000   0.000   0.115   0.000   0.000   0.046
  0.000   0.000   0.000   0.000   0.000   0.000   0.000   0.000
  0.000   0.000   0.000   0.000   0.000   0.000   0.000   0.000
  0.000   0.000   0.000   0.000   0.000   0.000   0.000   0.000
  0.000   0.000   0.000   0.000   0.000   0.000   0.000   0.000
  0.000   0.000   0.000   0.000   0.000   0.000   0.000   0.000
  0.000   0.000   0.000   0.000   0.000   0.000   0.000   0.000
  0.000   0.000   0.000   0.000   0.000   0.000   0.000   0.000
  0.000   0.000   0.000   0.000   0.000   0.000   0.000   0.000
  0.000   0.000   0.000   0.000   0.000   0.000   0.000   0.000
  0.000   0.000   0.000   0.000   0.000   0.000   0.000   0.000
 total augmentation occupancy for first ion, spin component:           1
  2.101  -0.210   0.000   0.000   0.000   0.000   0.000   0.000   0.000   0.000   0.000   0.000   0.000   0.000   0.000   0.000
 -0.210   0.421   0.000   0.000   0.000   0.000   0.000   0.000   0.000   0.000   0.000   0.000   0.000   0.000   0.000   0.000
  0.000   0.000   2.024   0.000   0.000   0.083   0.000   0.000   0.000   0.000   0.000   0.000   0.000   0.000   0.000   0.000
  0.000   0.000   0.000   2.024   0.000   0.000   0.083   0.000   0.000   0.000   0.000   0.000   0.000   0.000   0.000   0.000
  0.000   0.000   0.000   0.000   2.024   0.000   0.000   0.083   0.000   0.000   0.000   0.000   0.000   0.000   0.000   0.000
  0.000   0.000   0.083   0.000   0.000   0.255   0.000   0.000   0.000   0.000   0.000   0.000   0.000   0.000   0.000   0.000
  0.000   0.000   0.000   0.083   0.000   0.000   0.255   0.000   0.000   0.000   0.000   0.000   0.000   0.000   0.000   0.000
  0.000   0.000   0.000   0.000   0.083   0.000   0.000   0.255   0.000   0.000   0.000   0.000   0.000   0.000   0.000   0.000
  0.000   0.000   0.000   0.000   0.000   0.000   0.000   0.000   0.079   0.000   0.000   0.000   0.000  -0.338   0.000   0.000
  0.000   0.000   0.000   0.000   0.000   0.000   0.000   0.000   0.000   0.079   0.000   0.000   0.000   0.000  -0.338   0.000
  0.000   0.000   0.000   0.000   0.000   0.000   0.000   0.000   0.000   0.000   0.056   0.000   0.000   0.000   0.000  -0.232
  0.000   0.000   0.000   0.000   0.000   0.000   0.000   0.000   0.000   0.000   0.000   0.079   0.000   0.000   0.000   0.000
  0.000   0.000   0.000   0.000   0.000   0.000   0.000   0.000   0.000   0.000   0.000   0.000   0.056   0.000   0.000   0.000
  0.000   0.000   0.000   0.000   0.000   0.000   0.000   0.000  -0.338   0.000   0.000   0.000   0.000   1.558   0.000   0.000
  0.000   0.000   0.000   0.000   0.000   0.000   0.000   0.000   0.000  -0.338   0.000   0.000   0.000   0.000   1.558   0.000
  0.000   0.000   0.000   0.000   0.000   0.000   0.000   0.000   0.000   0.000  -0.232   0.000   0.000   0.000   0.000   1.018
  0.000   0.000   0.000   0.000   0.000   0.000   0.000   0.000   0.000   0.000   0.000  -0.338   0.000   0.000   0.000   0.000
  0.000   0.000   0.000   0.000   0.000   0.000   0.000   0.000   0.000   0.000   0.000   0.000  -0.232   0.000   0.000   0.000
 total augmentation occupancy for first ion, spin component:           2
  0.002  -0.005   0.000   0.000   0.000   0.000   0.000   0.000   0.000   0.000   0.000   0.000   0.000   0.000   0.000   0.000
 -0.005   0.010   0.000   0.000   0.000   0.000   0.000   0.000   0.000   0.000   0.000   0.000   0.000   0.000   0.000   0.000
  0.000   0.000   0.000   0.000   0.000   0.000   0.000   0.000   0.000   0.000   0.000   0.000   0.000   0.000   0.000   0.000
  0.000   0.000   0.000   0.000   0.000   0.000   0.000   0.000   0.000   0.000   0.000   0.000   0.000   0.000   0.000   0.000
  0.000   0.000   0.000   0.000   0.000   0.000   0.000   0.000   0.000   0.000   0.000   0.000   0.000   0.000   0.000   0.000
  0.000   0.000   0.000   0.000   0.000   0.003   0.000   0.000   0.000   0.000   0.000   0.000   0.000   0.000   0.000   0.000
  0.000   0.000   0.000   0.000   0.000   0.000   0.003   0.000   0.000   0.000   0.000   0.000   0.000   0.000   0.000   0.000
  0.000   0.000   0.000   0.000   0.000   0.000   0.000   0.003   0.000   0.000   0.000   0.000   0.000   0.000   0.000   0.000
  0.000   0.000   0.000   0.000   0.000   0.000   0.000   0.000   0.000   0.000   0.000   0.000   0.000   0.001   0.000   0.000
  0.000   0.000   0.000   0.000   0.000   0.000   0.000   0.000   0.000   0.000   0.000   0.000   0.000   0.000   0.001   0.000
  0.000   0.000   0.000   0.000   0.000   0.000   0.000   0.000   0.000   0.000   0.003   0.000   0.000   0.000   0.000  -0.013
  0.000   0.000   0.000   0.000   0.000   0.000   0.000   0.000   0.000   0.000   0.000   0.000   0.000   0.000   0.000   0.000
  0.000   0.000   0.000   0.000   0.000   0.000   0.000   0.000   0.000   0.000   0.000   0.000   0.003   0.000   0.000   0.000
  0.000   0.000   0.000   0.000   0.000   0.000   0.000   0.000   0.001   0.000   0.000   0.000   0.000  -0.001   0.000   0.000
  0.000   0.000   0.000   0.000   0.000   0.000   0.000   0.000   0.000   0.001   0.000   0.000   0.000   0.000  -0.001   0.000
  0.000   0.000   0.000   0.000   0.000   0.000   0.000   0.000   0.000   0.000  -0.013   0.000   0.000   0.000   0.000   0.046
  0.000   0.000   0.000   0.000   0.000   0.000   0.000   0.000   0.000   0.000   0.000   0.001   0.000   0.000   0.000   0.000
  0.000   0.000   0.000   0.000   0.000   0.000   0.000   0.000   0.000   0.000   0.000   0.000  -0.013   0.000   0.000   0.000


------------------------ aborting loop because EDIFF is reached ----------------------------------------


    CHARGE:  cpu time    0.0210: real time    0.0214
    FORLOC:  cpu time    0.0010: real time    0.0006
    FORNL :  cpu time    0.1040: real time    0.1034
    FORCOR:  cpu time    0.0670: real time    0.0678
    FORHAR:  cpu time    0.0030: real time    0.0026
    MIXING:  cpu time    0.0000: real time    0.0008
    OFIELD:  cpu time    0.0000: real time    0.0000

 VOLUME and BASIS-vectors are now :
 -----------------------------------------------------------------------------
  energy-cutoff  :      300.00
  volume of cell :       64.00
      direct lattice vectors                 reciprocal lattice vectors
     4.000000000  0.000000000  0.000000000     0.250000000  0.000000000  0.000000000
     0.000000000  4.000000000  0.000000000     0.000000000  0.250000000  0.000000000
     0.000000000  0.000000000  4.000000000     0.000000000  0.000000000  0.250000000

  length of vectors
     4.000000000  4.000000000  4.000000000     0.250000000  0.250000000  0.250000000


 FORCES acting on ions
    electron-ion (+dipol)            ewald-force                    non-local-force                 convergence-correction
 -----------------------------------------------------------------------------------------------
   0.672E-13 -.115E-11 -.220E-12   0.113E-13 0.638E-15 0.472E-14   0.000E+00 0.000E+00 0.000E+00   -.420E-13 0.229E-14 0.706E-13
   0.395E-14 0.197E-13 -.127E-12   0.345E-14 -.387E-14 0.747E-14   0.000E+00 0.000E+00 0.000E+00   0.895E-13 -.103E-13 0.217E-13
   0.147E-12 0.176E-13 0.260E-11   -.829E-14 -.298E-14 -.197E-14   0.000E+00 0.000E+00 0.000E+00   0.246E-13 0.618E-14 0.233E-13
   0.172E-13 0.142E-12 0.208E-13   -.114E-14 0.845E-14 -.192E-14   0.000E+00 0.000E+00 0.000E+00   0.357E-13 0.336E-13 0.311E-13
   0.173E-13 0.179E-13 0.171E-12   -.449E-14 -.303E-14 -.694E-14   0.000E+00 0.000E+00 0.000E+00   0.331E-13 -.112E-13 -.388E-14
 -----------------------------------------------------------------------------------------------
   0.252E-12 -.955E-12 0.245E-11   0.861E-15 -.791E-15 0.135E-14   0.000E+00 0.000E+00 0.000E+00   0.141E-12 0.206E-13 0.143E-12
 
 
 POSITION                                       TOTAL-FORCE (eV/Angst)
 -----------------------------------------------------------------------------------
      2.00000      2.00000      2.00000         0.000000      0.000000      0.000000
      0.00000      0.00000      0.00000         0.000000      0.000000      0.000000
      2.00000      0.00000      0.00000         0.000000      0.000000      0.000000
      0.00000      2.00000      0.00000         0.000000      0.000000      0.000000
      0.00000      0.00000      2.00000         0.000000      0.000000      0.000000
 -----------------------------------------------------------------------------------
    total drift:                                0.000000      0.000000      0.000000


--------------------------------------------------------------------------------------------------------



  FREE ENERGIE OF THE ION-ELECTRON SYSTEM (eV)
  ---------------------------------------------------
  free  energy   TOTEN  =       -31.37734858 eV

  energy  without entropy=      -31.37734858  energy(sigma->0) =      -31.37734858
 


--------------------------------------------------------------------------------------------------------


    POTLOK:  cpu time    0.0700: real time    0.0696


--------------------------------------------------------------------------------------------------------


 stress matrix after NEB project (eV)
      0.00000      0.00000      0.00000
      0.00000      0.00000      0.00000
      0.00000      0.00000      0.00000
  FORCES: max atom, RMS     0.000000    0.000000
  FORCE total and by dimension    0.000000    0.000000
  Stress total and by dimension    0.000000    0.000000
 Quasi-Newton relaxation of ions (Broydens 2nd method)
  g(Force)  = 0.000E+00   g(Stress)= 0.000E+00

 Reset! Starting new Quasi-Newton update for ions 


--------------------------------------------------------------------------------------------------------


  
 reached required accuracy - stopping structural energy minimisation
     LOOP+:  cpu time    6.0801: real time    6.1139
    4ORBIT:  cpu time    0.0000: real time    0.0000

 total amount of memory used by VASP on root node    32430. kBytes
========================================================================

   base      :      30000. kBytes
   nonlr-proj:        384. kBytes
   fftplans  :        271. kBytes
   grid      :        728. kBytes
   one-center:         62. kBytes
   wavefun   :        985. kBytes
 
  
  
 General timing and accounting informations for this job:
 ========================================================
  
                  Total CPU time used (sec):        7.408
                            User time (sec):        7.205
                          System time (sec):        0.203
                         Elapsed time (sec):        7.566
  
                   Maximum memory used (kb):       34820.
                   Average memory used (kb):           0.
  
                          Minor page faults:         5623
                          Major page faults:            9
                 Voluntary context switches:         1080
