<?xml version="1.0" encoding="ISO-8859-1"?>
<modeling>
 <generator>
  <i name="program" type="string">vasp </i>
  <i name="version" type="string">5.4.1  </i>
  <i name="subversion" type="string">24Jun15 (build Jan 06 2016 13:10:00) complex                          parallel </i>
  <i name="platform" type="string">IFC91_ompi </i>
  <i name="date" type="string">2016 02 25 </i>
  <i name="time" type="string">14:48:07 </i>
 </generator>
 <incar>
  <i type="string" name="PREC">normal</i>
  <i type="string" name="ALGO"> Fast</i>
  <i type="int" name="ISPIN">     2</i>
  <i type="int" name="NELM">   100</i>
  <i type="int" name="IBRION">     1</i>
  <i name="EDIFF">      0.00100000</i>
  <i name="EDIFFG">     -0.01000000</i>
  <i type="int" name="NSW">    99</i>
  <i type="int" name="ISIF">     0</i>
  <i name="ENCUT">    300.00000000</i>
  <i type="string" name="LREAL">Auto</i>
  <i type="int" name="ISMEAR">    -5</i>
  <i name="SIGMA">      0.05000000</i>
  <i type="int" name="LMAXMIX">     4</i>
  <i type="logical" name="LWAVE"> F  </i>
  <v type="int" name="KPOINT_BSE">    -1     0     0     0</v>
  <i type="int" name="NELM">   100</i>
  <i type="logical" name="LDAU"> T  </i>
  <v type="int" name="LDAUTYPE">     2</v>
  <v type="int" name="LDAUL">     0     2     0</v>
  <v name="LDAUU">      0.00000000      5.30000000      0.00000000</v>
  <v name="LDAUJ">      0.00000000      0.00000000      0.00000000</v>
  <i type="int" name="LDAUPRINT">     1</i>
 </incar>
 <kpoints>
  <generation param="Monkhorst-Pack">
   <v type="int" name="divisions">       6        6        6 </v>
   <v name="usershift">      0.00000000       0.00000000       0.00000000 </v>
   <v name="genvec1">      0.16666667       0.00000000       0.00000000 </v>
   <v name="genvec2">      0.00000000       0.16666667       0.00000000 </v>
   <v name="genvec3">      0.00000000       0.00000000       0.16666667 </v>
   <v name="shift">      0.50000000       0.50000000       0.50000000 </v>
  </generation>
  <varray name="kpointlist" >
   <v>       0.08333333       0.08333333       0.08333333 </v>
   <v>       0.25000000       0.08333333       0.08333333 </v>
   <v>       0.41666667       0.08333333       0.08333333 </v>
   <v>       0.25000000       0.25000000       0.08333333 </v>
   <v>       0.41666667       0.25000000       0.08333333 </v>
   <v>       0.41666667       0.41666667       0.08333333 </v>
   <v>       0.25000000       0.25000000       0.25000000 </v>
   <v>       0.41666667       0.25000000       0.25000000 </v>
   <v>       0.41666667       0.41666667       0.25000000 </v>
   <v>       0.41666667       0.41666667       0.41666667 </v>
  </varray>
  <varray name="weights" >
   <v>       0.03703704 </v>
   <v>       0.11111111 </v>
   <v>       0.11111111 </v>
   <v>       0.11111111 </v>
   <v>       0.22222222 </v>
   <v>       0.11111111 </v>
   <v>       0.03703704 </v>
   <v>       0.11111111 </v>
   <v>       0.11111111 </v>
   <v>       0.03703704 </v>
  </varray>
  <varray name="tetrahedronlist"  type="int" >
   <v type="int" >       24        1        2        2        4 </v>
   <v type="int" >       18        2        2        4        4 </v>
   <v type="int" >       12        2        4        4        7 </v>
   <v type="int" >       12        2        3        4        5 </v>
   <v type="int" >       24        2        4        4        5 </v>
   <v type="int" >       12        4        4        5        7 </v>
   <v type="int" >       24        3        4        5        5 </v>
   <v type="int" >       24        4        5        5        8 </v>
   <v type="int" >       24        4        5        7        8 </v>
   <v type="int" >       30        3        3        5        5 </v>
   <v type="int" >       36        3        5        5        5 </v>
   <v type="int" >       12        5        5        5        8 </v>
   <v type="int" >        6        5        5        8        8 </v>
   <v type="int" >       18        1        1        2        2 </v>
   <v type="int" >       24        1        2        2        2 </v>
   <v type="int" >       12        2        2        2        4 </v>
   <v type="int" >       12        4        5        6        7 </v>
   <v type="int" >       12        5        6        7        8 </v>
   <v type="int" >       12        6        7        8        9 </v>
   <v type="int" >       24        5        5        6        8 </v>
   <v type="int" >       12        5        6        6        8 </v>
   <v type="int" >       12        6        6        8        9 </v>
   <v type="int" >       12        5        6        8        8 </v>
   <v type="int" >       12        6        8        8        9 </v>
   <v type="int" >       12        6        8        9        9 </v>
   <v type="int" >       12        5        6        8        9 </v>
   <v type="int" >       12        5        7        8        8 </v>
   <v type="int" >       24        5        8        8        9 </v>
   <v type="int" >       12        2        3        4        7 </v>
   <v type="int" >       12        3        4        5        7 </v>
   <v type="int" >       12        3        5        7        8 </v>
   <v type="int" >       12        2        2        3        4 </v>
   <v type="int" >       12        2        3        3        4 </v>
   <v type="int" >       12        3        3        4        5 </v>
   <v type="int" >       12        2        3        4        4 </v>
   <v type="int" >       12        3        4        4        5 </v>
   <v type="int" >       12        6        6        6        9 </v>
   <v type="int" >       12        6        6        9        9 </v>
   <v type="int" >       12        6        9        9        9 </v>
   <v type="int" >       12        5        5        6        9 </v>
   <v type="int" >       12        5        6        6        9 </v>
   <v type="int" >       12        5        6        9        9 </v>
   <v type="int" >       12        5        5        8        9 </v>
   <v type="int" >       12        5        8        9        9 </v>
   <v type="int" >       12        3        3        5        8 </v>
   <v type="int" >       12        3        5        5        8 </v>
   <v type="int" >       12        3        5        8        8 </v>
   <v type="int" >       24        3        3        3        5 </v>
   <v type="int" >       12        4        5        6        9 </v>
   <v type="int" >       12        4        5        8        9 </v>
   <v type="int" >       12        4        7        8        9 </v>
   <v type="int" >       12        2        3        5        8 </v>
   <v type="int" >       12        2        4        5        8 </v>
   <v type="int" >       12        2        4        7        8 </v>
   <v type="int" >       12        2        3        3        5 </v>
   <v type="int" >       12        2        2        3        5 </v>
   <v type="int" >       12        2        2        4        5 </v>
   <v type="int" >       12        2        3        5        5 </v>
   <v type="int" >       12        2        4        5        5 </v>
   <v type="int" >       12        1        2        4        7 </v>
   <v type="int" >       12        1        1        2        4 </v>
   <v type="int" >       12        1        2        4        4 </v>
   <v type="int" >       12        1        1        1        2 </v>
   <v type="int" >       12        7        8        8        9 </v>
   <v type="int" >       18        8        8        9        9 </v>
   <v type="int" >       24        8        9        9       10 </v>
   <v type="int" >       12        8        9        9        9 </v>
   <v type="int" >       24        9        9        9       10 </v>
   <v type="int" >       18        9        9       10       10 </v>
   <v type="int" >        6        4        4        5        5 </v>
   <v type="int" >       12        4        5        5        5 </v>
   <v type="int" >       36        5        5        5        6 </v>
   <v type="int" >       30        5        5        6        6 </v>
   <v type="int" >       12        9       10       10       10 </v>
   <v type="int" >       12        8        8        9       10 </v>
   <v type="int" >       12        8        9       10       10 </v>
   <v type="int" >       24        5        6        6        6 </v>
   <v type="int" >       12        7        8        9       10 </v>
   <v type="int" >       12        4        5        5        6 </v>
   <v type="int" >       12        4        4        5        6 </v>
   <v type="int" >       12        4        5        6        6 </v>
   <v type="int" >       12        2        2        2        3 </v>
   <v type="int" >       12        2        2        3        3 </v>
   <v type="int" >       12        2        3        3        3 </v>
   <v type="int" >        6       10       10       10       10 </v>
   <v type="int" >       18        6        6        6        6 </v>
   <v type="int" >       18        3        3        3        3 </v>
   <v type="int" >        6        1        1        1        1 </v>
  </varray>
  <i name="volumeweight">      0.00077160 </i>
 </kpoints>
 <parameters>
  <separator name="general" >
   <i type="string" name="SYSTEM">unknown system</i>
   <i type="logical" name="LCOMPAT"> F  </i>
  </separator>
  <separator name="electronic" >
   <i type="string" name="PREC">normal</i>
   <i name="ENMAX">    300.00000000</i>
   <i name="ENAUG">    578.34200000</i>
   <i name="EDIFF">      0.00100000</i>
   <i type="int" name="IALGO">    68</i>
   <i type="int" name="IWAVPR">    11</i>
   <i type="int" name="NBANDS">    28</i>
   <i name="NELECT">     42.00000000</i>
   <i type="int" name="TURBO">     0</i>
   <i type="int" name="IRESTART">     0</i>
   <i type="int" name="NREBOOT">     0</i>
   <i type="int" name="NMIN">     0</i>
   <i name="EREF">      0.00000000</i>
   <separator name="electronic smearing" >
    <i type="int" name="ISMEAR">    -5</i>
    <i name="SIGMA">      0.05000000</i>
    <i name="KSPACING">      0.50000000</i>
    <i type="logical" name="KGAMMA"> T  </i>
   </separator>
   <separator name="electronic projectors" >
    <i type="logical" name="LREAL"> T  </i>
    <v name="ROPT">     -0.00050000     -0.00050000     -0.00050000</v>
    <i type="int" name="LMAXPAW">  -100</i>
    <i type="int" name="LMAXMIX">     4</i>
    <i type="logical" name="NLSPLINE"> F  </i>
   </separator>
   <separator name="electronic startup" >
    <i type="int" name="ISTART">     0</i>
    <i type="int" name="ICHARG">     2</i>
    <i type="int" name="INIWAV">     1</i>
   </separator>
   <separator name="electronic spin" >
    <i type="int" name="ISPIN">     2</i>
    <i type="logical" name="LNONCOLLINEAR"> F  </i>
    <v name="MAGMOM">      1.00000000      1.00000000      1.00000000      1.00000000      1.00000000</v>
    <i name="NUPDOWN">     -1.00000000</i>
    <i type="logical" name="LSORBIT"> F  </i>
    <v name="SAXIS">      0.00000000      0.00000000      1.00000000</v>
    <i type="logical" name="LSPIRAL"> F  </i>
    <v name="QSPIRAL">      0.00000000      0.00000000      0.00000000</v>
    <i type="logical" name="LZEROZ"> F  </i>
   </separator>
   <separator name="electronic exchange-correlation" >
    <i type="logical" name="LASPH"> F  </i>
    <i type="logical" name="LMETAGGA"> F  </i>
   </separator>
   <separator name="electronic convergence" >
    <i type="int" name="NELM">   100</i>
    <i type="int" name="NELMDL">    -5</i>
    <i type="int" name="NELMIN">     2</i>
    <i name="ENINI">    300.00000000</i>
    <separator name="electronic convergence detail" >
     <i type="logical" name="LDIAG"> T  </i>
     <i type="logical" name="LSUBROT"> F  </i>
     <i name="WEIMIN">      0.00100000</i>
     <i name="EBREAK">      0.00000893</i>
     <i name="DEPER">      0.30000000</i>
     <i type="int" name="NRMM">     4</i>
     <i name="TIME">      0.40000000</i>
    </separator>
   </separator>
   <separator name="electronic mixer" >
    <i name="AMIX">      0.40000000</i>
    <i name="BMIX">      1.00000000</i>
    <i name="AMIN">      0.10000000</i>
    <i name="AMIX_MAG">      1.60000000</i>
    <i name="BMIX_MAG">      1.00000000</i>
    <separator name="electronic mixer details" >
     <i type="int" name="IMIX">     4</i>
     <i type="logical" name="MIXFIRST"> F  </i>
     <i type="int" name="MAXMIX">   -45</i>
     <i name="WC">    100.00000000</i>
     <i type="int" name="INIMIX">     1</i>
     <i type="int" name="MIXPRE">     1</i>
     <i type="int" name="MREMOVE">     5</i>
    </separator>
   </separator>
   <separator name="electronic dipolcorrection" >
    <i type="logical" name="LDIPOL"> F  </i>
    <i type="logical" name="LMONO"> F  </i>
    <i type="int" name="IDIPOL">     0</i>
    <i name="EPSILON">      1.00000000</i>
    <v name="DIPOL">   -100.00000000   -100.00000000   -100.00000000</v>
    <i name="EFIELD">      0.00000000</i>
   </separator>
  </separator>
  <separator name="grids" >
   <i type="int" name="NGX">    18</i>
   <i type="int" name="NGY">    18</i>
   <i type="int" name="NGZ">    18</i>
   <i type="int" name="NGXF">    36</i>
   <i type="int" name="NGYF">    36</i>
   <i type="int" name="NGZF">    36</i>
   <i type="logical" name="ADDGRID"> F  </i>
  </separator>
  <separator name="ionic" >
   <i type="int" name="NSW">    99</i>
   <i type="int" name="IBRION">     1</i>
   <i type="int" name="ISIF">     0</i>
   <i name="PSTRESS">      0.00000000</i>
   <i name="EDIFFG">     -0.01000000</i>
   <i type="int" name="NFREE">     0</i>
   <i name="POTIM">      0.50000000</i>
   <i name="SMASS">     -3.00000000</i>
   <i name="SCALEE">      1.00000000</i>
  </separator>
  <separator name="ionic md" >
   <i name="TEBEG">      0.00010000</i>
   <i name="TEEND">      0.00010000</i>
   <i type="int" name="NBLOCK">     1</i>
   <i type="int" name="KBLOCK">    99</i>
   <i type="int" name="NPACO">   256</i>
   <i name="APACO">     16.00000000</i>
  </separator>
  <separator name="symmetry" >
   <i type="int" name="ISYM">     2</i>
   <i name="SYMPREC">      0.00001000</i>
  </separator>
  <separator name="dos" >
   <i type="logical" name="LORBIT"> F  </i>
   <v name="RWIGS">     -1.00000000     -1.00000000     -1.00000000</v>
   <i type="int" name="NEDOS">   301</i>
   <i name="EMIN">     10.00000000</i>
   <i name="EMAX">    -10.00000000</i>
   <i name="EFERMI">      0.00000000</i>
  </separator>
  <separator name="writing" >
   <i type="int" name="NWRITE">     2</i>
   <i type="logical" name="LWAVE"> F  </i>
   <i type="logical" name="LCHARG"> T  </i>
   <i type="logical" name="LPARD"> F  </i>
   <i type="logical" name="LVTOT"> F  </i>
   <i type="logical" name="LVHAR"> F  </i>
   <i type="logical" name="LELF"> F  </i>
   <i type="logical" name="LOPTICS"> F  </i>
   <v name="STM">      0.00000000      0.00000000      0.00000000      0.00000000      0.00000000      0.00000000      0.00000000</v>
  </separator>
  <separator name="performance" >
   <i type="int" name="NPAR">     2</i>
   <i type="int" name="NSIM">     4</i>
   <i type="int" name="NBLK">    -1</i>
   <i type="logical" name="LPLANE"> T  </i>
   <i type="logical" name="LSCALAPACK"> T  </i>
   <i type="logical" name="LSCAAWARE"> F  </i>
   <i type="logical" name="LSCALU"> F  </i>
   <i type="logical" name="LASYNC"> F  </i>
   <i type="logical" name="LORBITALREAL"> F  </i>
  </separator>
  <separator name="miscellaneous" >
   <i type="int" name="IDIOT">     3</i>
   <i type="logical" name="LMUSIC"> F  </i>
   <v name="POMASS">     87.62000000     55.84700000     16.00000000</v>
   <v name="DARWINR">      0.00000000      0.00000000      0.00000000</v>
   <v name="DARWINV">      1.00000000      1.00000000      1.00000000</v>
   <i type="logical" name="LCORR"> T  </i>
  </separator>
  <i type="logical" name="GGA_COMPAT"> T  </i>
  <i type="logical" name="LBERRY"> F  </i>
  <i type="int" name="ICORELEVEL">     0</i>
  <i type="logical" name="LDAU"> T  </i>
  <v type="int" name="LDAUTYPE">     2</v>
  <v type="int" name="LDAUL">     0</v>
  <v name="LDAUU">      0.00000000</v>
  <v name="LDAUJ">      0.00000000</v>
  <i type="int" name="LDAUPRINT">     1</i>
  <i type="int" name="I_CONSTRAINED_M">     0</i>
  <separator name="electronic exchange-correlation" >
   <i type="string" name="GGA">--</i>
   <i type="int" name="VOSKOWN">     0</i>
   <i type="logical" name="LHFCALC"> F  </i>
   <i type="string" name="PRECFOCK"></i>
   <i type="logical" name="LSYMGRAD"> F  </i>
   <i type="logical" name="LHFONE"> F  </i>
   <i type="logical" name="LRHFCALC"> F  </i>
   <i type="logical" name="LTHOMAS"> F  </i>
   <i type="logical" name="LMODELHF"> F  </i>
   <i name="ENCUT4O">     -1.00000000</i>
   <i type="int" name="EXXOEP">     0</i>
   <i type="int" name="FOURORBIT">     0</i>
   <i name="AEXX">      0.00000000</i>
   <i name="HFALPHA">      0.00000000</i>
   <i name="MCALPHA">      0.00000000</i>
   <i name="ALDAX">      1.00000000</i>
   <i name="AGGAX">      1.00000000</i>
   <i name="ALDAC">      1.00000000</i>
   <i name="AGGAC">      1.00000000</i>
   <i type="int" name="NKREDX">     1</i>
   <i type="int" name="NKREDY">     1</i>
   <i type="int" name="NKREDZ">     1</i>
   <i type="logical" name="SHIFTRED"> F  </i>
   <i type="logical" name="ODDONLY"> F  </i>
   <i type="logical" name="EVENONLY"> F  </i>
   <i type="int" name="LMAXFOCK">     0</i>
   <i type="int" name="NMAXFOCKAE">     0</i>
   <i type="logical" name="LFOCKAEDFT"> F  </i>
   <i name="HFSCREEN">      0.00000000</i>
   <i name="HFSCREENC">      0.00000000</i>
   <i type="int" name="NBANDSGWLOW">     0</i>
  </separator>
  <separator name="vdW DFT" >
   <i type="logical" name="LUSE_VDW"> F  </i>
   <i name="Zab_VDW">     -0.84910000</i>
   <i name="PARAM1">      0.12340000</i>
   <i name="PARAM2">      1.00000000</i>
   <i name="PARAM3">      0.00000000</i>
  </separator>
  <separator name="model GW" >
   <i type="int" name="MODEL_GW">     0</i>
   <i name="MODEL_EPS0">      7.68000000</i>
   <i name="MODEL_ALPHA">      1.00000000</i>
  </separator>
  <separator name="linear response parameters" >
   <i type="logical" name="LEPSILON"> F  </i>
   <i type="logical" name="LRPA"> F  </i>
   <i type="logical" name="LNABLA"> F  </i>
   <i type="logical" name="LVEL"> F  </i>
   <i type="int" name="KINTER">     0</i>
   <i name="CSHIFT">      0.10000000</i>
   <i name="OMEGAMAX">     -1.00000000</i>
   <i name="DEG_THRESHOLD">      0.00200000</i>
  </separator>
  <separator name="orbital magnetization" >
   <i type="logical" name="NUCIND"> F  </i>
   <v name="MAGPOS">      0.00000000      0.00000000      0.00000000</v>
   <i type="logical" name="LNICSALL"> T  </i>
   <i type="logical" name="ORBITALMAG"> F  </i>
   <i type="logical" name="LMAGBLOCH"> F  </i>
   <i type="logical" name="LCHIMAG"> F  </i>
   <i type="logical" name="LGAUGE"> T  </i>
   <i type="int" name="MAGATOM">     0</i>
   <v name="MAGDIPOL">      0.00000000      0.00000000      0.00000000</v>
   <v name="AVECCONST">      0.00000000      0.00000000      0.00000000</v>
  </separator>
  <separator name="response functions" >
   <i type="logical" name="LADDER"> F  </i>
   <i type="logical" name="LFXC"> F  </i>
   <i type="logical" name="LHARTREE"> T  </i>
   <i type="int" name="IBSE">     0</i>
   <v type="int" name="KPOINT">    -1     0     0     0</v>
   <i type="logical" name="LTCTE"> F  </i>
   <i type="logical" name="LTETE"> F  </i>
   <i type="logical" name="LTRIPLET"> F  </i>
   <i type="logical" name="LFXCEPS"> F  </i>
   <i type="logical" name="LFXHEG"> F  </i>
   <i type="int" name="NATURALO">     0</i>
   <i type="logical" name="L2ORDER"> F  </i>
   <i type="logical" name="LUSEW"> F  </i>
   <i name="ENCUTGW">     -2.00000000</i>
   <i name="ENCUTGWSOFT">     -2.00000000</i>
   <i name="ENCUTLF">     -1.00000000</i>
   <i type="int" name="LMAXMP2">    -1</i>
   <i name="SCISSOR">      0.00000000</i>
   <i type="int" name="NOMEGA">     0</i>
   <i type="int" name="NOMEGAR">     0</i>
   <i type="int" name="NBANDSGW">    -1</i>
   <i type="int" name="NBANDSO">    -1</i>
   <i type="int" name="NBANDSV">    -1</i>
   <i type="int" name="NELM">   100</i>
   <i type="int" name="NELMHF">     1</i>
   <i type="int" name="DIM">     3</i>
   <i type="int" name="ANTIRES">     0</i>
   <i name="OMEGAMAX">    -30.00000000</i>
   <i name="OMEGAMIN">    -30.00000000</i>
   <i name="OMEGATL">   -200.00000000</i>
   <i type="int" name="OMEGAGRID">     0</i>
   <i name="CSHIFT">     -0.10000000</i>
   <i type="logical" name="SELFENERGY"> F  </i>
   <i type="logical" name="LSPECTRAL"> F  </i>
   <i type="logical" name="LSPECTRALGW"> F  </i>
   <i type="logical" name="LSINGLES"> F  </i>
   <i type="logical" name="LFERMIGW"> F  </i>
   <i type="logical" name="ODDONLYGW"> F  </i>
   <i type="logical" name="EVENONLYGW"> F  </i>
   <i type="int" name="NKREDLFX">     1</i>
   <i type="int" name="NKREDLFY">     1</i>
   <i type="int" name="NKREDLFZ">     1</i>
   <i type="int" name="MAXMEM">  1800</i>
   <i type="int" name="TELESCOPE">     0</i>
   <i type="int" name="TAUPAR">     1</i>
   <i type="int" name="OMEGAPAR">    -1</i>
   <i name="LAMBDA">      1.00000000</i>
  </separator>
  <separator name="External order field" >
   <i name="OFIELD_KAPPA">      0.00000000</i>
   <v name="OFIELD_K">      0.00000000      0.00000000      0.00000000</v>
   <i name="OFIELD_Q6_NEAR">      0.00000000</i>
   <i name="OFIELD_Q6_FAR">      0.00000000</i>
   <i name="OFIELD_A">      0.00000000</i>
  </separator>
  <separator name="solvation model" >
   <i type="logical" name="LSOL"> F  </i>
  </separator>
 </parameters>
 <atominfo>
  <atoms>       5 </atoms>
  <types>       3 </types>
  <array name="atoms" >
   <dimension dim="1">ion</dimension>
   <field type="string">element</field>
   <field type="int">atomtype</field>
   <set>
    <rc><c>Sr</c><c>   1</c></rc>
    <rc><c>Fe</c><c>   2</c></rc>
    <rc><c>O </c><c>   3</c></rc>
    <rc><c>O </c><c>   3</c></rc>
    <rc><c>O </c><c>   3</c></rc>
   </set>
  </array>
  <array name="atomtypes" >
   <dimension dim="1">type</dimension>
   <field type="int">atomspertype</field>
   <field type="string">element</field>
   <field>mass</field>
   <field>valence</field>
   <field type="string">pseudopotential</field>
   <set>
    <rc><c>   1</c><c>Sr</c><c>     87.62000000</c><c>     10.00000000</c><c>  PAW Sr                                </c></rc>
    <rc><c>   1</c><c>Fe</c><c>     55.84700000</c><c>     14.00000000</c><c>  PAW Fe                                </c></rc>
    <rc><c>   3</c><c>O </c><c>     16.00000000</c><c>      6.00000000</c><c>  PAW O_s                               </c></rc>
   </set>
  </array>
 </atominfo>
 <structure name="initialpos" >
  <crystal>
   <varray name="basis" >
    <v>       4.00000000       0.00000000       0.00000000 </v>
    <v>       0.00000000       4.00000000       0.00000000 </v>
    <v>       0.00000000       0.00000000       4.00000000 </v>
   </varray>
   <i name="volume">     64.00000000 </i>
   <varray name="rec_basis" >
    <v>       0.25000000       0.00000000       0.00000000 </v>
    <v>       0.00000000       0.25000000       0.00000000 </v>
    <v>       0.00000000       0.00000000       0.25000000 </v>
   </varray>
  </crystal>
  <varray name="positions" >
   <v>       0.50000000       0.50000000       0.50000000 </v>
   <v>       0.00000000       0.00000000       0.00000000 </v>
   <v>       0.50000000       0.00000000       0.00000000 </v>
   <v>       0.00000000       0.50000000       0.00000000 </v>
   <v>       0.00000000       0.00000000       0.50000000 </v>
  </varray>
 </structure>
 <calculation>
  <scstep>
   <time name="dav">    0.43    0.43</time>
   <time name="total">    0.52    0.52</time>
   <energy>
    <i name="alphaZ">    268.56435900 </i>
    <i name="ewald">  -3158.39996801 </i>
    <i name="hartreedc">  -1330.43788032 </i>
    <i name="XCdc">    189.37424307 </i>
    <i name="pawpsdc">   3241.81915236 </i>
    <i name="pawaedc">  -3317.81696278 </i>
    <i name="eentropy">      0.00000000 </i>
    <i name="bandstr">   -185.98439829 </i>
    <i name="atom">   4601.94837920 </i>
    <i name="e_fr_energy">    309.06692423 </i>
    <i name="e_wo_entrp">    309.06692423 </i>
    <i name="e_0_energy">    309.06692423 </i>
   </energy>
  </scstep>
  <scstep>
   <time name="dav">    0.40    0.40</time>
   <time name="total">    0.41    0.41</time>
   <energy>
    <i name="e_fr_energy">    -18.92469506 </i>
    <i name="e_wo_entrp">    -18.92469506 </i>
    <i name="e_0_energy">    -18.92469506 </i>
   </energy>
  </scstep>
  <scstep>
   <time name="dav">    0.52    0.52</time>
   <time name="total">    0.54    0.54</time>
   <energy>
    <i name="e_fr_energy">    -36.83629973 </i>
    <i name="e_wo_entrp">    -36.83629973 </i>
    <i name="e_0_energy">    -36.83629973 </i>
   </energy>
  </scstep>
  <scstep>
   <time name="dav">    0.58    0.58</time>
   <time name="total">    0.59    0.59</time>
   <energy>
    <i name="e_fr_energy">    -37.45275059 </i>
    <i name="e_wo_entrp">    -37.45275059 </i>
    <i name="e_0_energy">    -37.45275059 </i>
   </energy>
  </scstep>
  <scstep>
   <time name="dav">    0.51    0.51</time>
   <time name="total">    0.55    0.55</time>
   <energy>
    <i name="e_fr_energy">    -37.46362060 </i>
    <i name="e_wo_entrp">    -37.46362060 </i>
    <i name="e_0_energy">    -37.46362060 </i>
   </energy>
  </scstep>
  <scstep>
   <time name="diag">    0.08    0.08</time>
   <time name="diis">    0.20    0.20</time>
   <time name="orth">    0.01    0.01</time>
   <time name="total">    0.40    0.41</time>
   <energy>
    <i name="e_fr_energy">    -44.03575253 </i>
    <i name="e_wo_entrp">    -44.03575253 </i>
    <i name="e_0_energy">    -44.03575253 </i>
   </energy>
  </scstep>
  <scstep>
   <time name="diag">    0.08    0.08</time>
   <time name="diis">    0.18    0.19</time>
   <time name="orth">    0.01    0.01</time>
   <time name="total">    0.39    0.39</time>
   <energy>
    <i name="e_fr_energy">    -32.30600775 </i>
    <i name="e_wo_entrp">    -32.30600775 </i>
    <i name="e_0_energy">    -32.30600775 </i>
   </energy>
  </scstep>
  <scstep>
   <time name="diag">    0.08    0.09</time>
   <time name="diis">    0.19    0.20</time>
   <time name="orth">    0.01    0.01</time>
   <time name="total">    0.40    0.40</time>
   <energy>
    <i name="e_fr_energy">    -32.20693525 </i>
    <i name="e_wo_entrp">    -32.20693525 </i>
    <i name="e_0_energy">    -32.20693525 </i>
   </energy>
  </scstep>
  <scstep>
   <time name="diag">    0.08    0.08</time>
   <time name="diis">    0.19    0.19</time>
   <time name="orth">    0.01    0.01</time>
   <time name="total">    0.39    0.39</time>
   <energy>
    <i name="e_fr_energy">    -31.39736821 </i>
    <i name="e_wo_entrp">    -31.39736821 </i>
    <i name="e_0_energy">    -31.39736821 </i>
   </energy>
  </scstep>
  <scstep>
   <time name="diag">    0.08    0.08</time>
   <time name="diis">    0.19    0.19</time>
   <time name="orth">    0.01    0.01</time>
   <time name="total">    0.39    0.39</time>
   <energy>
    <i name="e_fr_energy">    -31.33912868 </i>
    <i name="e_wo_entrp">    -31.33912868 </i>
    <i name="e_0_energy">    -31.33912868 </i>
   </energy>
  </scstep>
  <scstep>
   <time name="diag">    0.08    0.08</time>
   <time name="diis">    0.18    0.18</time>
   <time name="orth">    0.01    0.01</time>
   <time name="total">    0.39    0.39</time>
   <energy>
    <i name="e_fr_energy">    -31.38847164 </i>
    <i name="e_wo_entrp">    -31.38847164 </i>
    <i name="e_0_energy">    -31.38847164 </i>
   </energy>
  </scstep>
  <scstep>
   <time name="diag">    0.08    0.08</time>
   <time name="diis">    0.17    0.17</time>
   <time name="orth">    0.01    0.01</time>
   <time name="total">    0.37    0.37</time>
   <energy>
    <i name="e_fr_energy">    -31.37762741 </i>
    <i name="e_wo_entrp">    -31.37762741 </i>
    <i name="e_0_energy">    -31.37762741 </i>
   </energy>
  </scstep>
  <scstep>
   <time name="diag">    0.08    0.08</time>
   <time name="diis">    0.17    0.17</time>
   <time name="orth">    0.01    0.01</time>
   <time name="total">    0.35    0.35</time>
   <energy>
    <i name="alphaZ">    268.56435900 </i>
    <i name="ewald">  -3158.39996801 </i>
    <i name="hartreedc">  -1279.02586958 </i>
    <i name="XCdc">    190.65056988 </i>
    <i name="pawpsdc">   3409.70373309 </i>
    <i name="pawaedc">  -3496.45894240 </i>
    <i name="eentropy">      0.00000000 </i>
    <i name="bandstr">   -568.35960976 </i>
    <i name="atom">   4601.94837920 </i>
    <i name="e_fr_energy">    -31.37734858 </i>
    <i name="e_wo_entrp">    -31.37734858 </i>
    <i name="e_0_energy">    -31.37734858 </i>
   </energy>
  </scstep>
  <structure>
   <crystal>
    <varray name="basis" >
     <v>       4.00000000       0.00000000       0.00000000 </v>
     <v>       0.00000000       4.00000000       0.00000000 </v>
     <v>       0.00000000       0.00000000       4.00000000 </v>
    </varray>
    <i name="volume">     64.00000000 </i>
    <varray name="rec_basis" >
     <v>       0.25000000       0.00000000       0.00000000 </v>
     <v>       0.00000000       0.25000000       0.00000000 </v>
     <v>       0.00000000       0.00000000       0.25000000 </v>
    </varray>
   </crystal>
   <varray name="positions" >
    <v>       0.50000000       0.50000000       0.50000000 </v>
    <v>       0.00000000       0.00000000       0.00000000 </v>
    <v>       0.50000000       0.00000000       0.00000000 </v>
    <v>       0.00000000       0.50000000       0.00000000 </v>
    <v>       0.00000000       0.00000000       0.50000000 </v>
   </varray>
  </structure>
  <varray name="forces" >
   <v>       0.00000000       0.00000000       0.00000000 </v>
   <v>       0.00000000       0.00000000       0.00000000 </v>
   <v>       0.00000000       0.00000000       0.00000000 </v>
   <v>       0.00000000       0.00000000       0.00000000 </v>
   <v>       0.00000000       0.00000000       0.00000000 </v>
  </varray>
  <energy>
   <i name="e_fr_energy">    -31.37734858 </i>
   <i name="e_wo_entrp">    -31.37734858 </i>
   <i name="e_0_energy">      0.00000000 </i>
  </energy>
  <time name="totalsc">    6.08    6.11</time>
  <eigenvalues>
   <array>
    <dimension dim="1">band</dimension>
    <dimension dim="2">kpoint</dimension>
    <dimension dim="3">spin</dimension>
    <field>eigene</field>
    <field>occ</field>
    <set>
     <set comment="spin 1">
      <set comment="kpoint 1">
       <r>  -55.1936    1.0000 </r>
       <r>  -55.1935    1.0000 </r>
       <r>  -55.1935    1.0000 </r>
       <r>  -30.7064    1.0000 </r>
       <r>  -15.4833    1.0000 </r>
       <r>  -14.4107    1.0000 </r>
       <r>  -14.4107    1.0000 </r>
       <r>  -12.7151    1.0000 </r>
       <r>  -12.7151    1.0000 </r>
       <r>  -12.6679    1.0000 </r>
       <r>   -4.8455    1.0000 </r>
       <r>   -4.8455    1.0000 </r>
       <r>   -4.8411    1.0000 </r>
       <r>   -3.8108    1.0000 </r>
       <r>   -3.8108    1.0000 </r>
       <r>   -1.8318    1.0000 </r>
       <r>   -1.2635    1.0000 </r>
       <r>   -1.2635    1.0000 </r>
       <r>    0.7946    1.0000 </r>
       <r>    0.7946    1.0000 </r>
       <r>    0.9914    1.0000 </r>
       <r>    1.0935    1.0000 </r>
       <r>    1.5030    1.0000 </r>
       <r>    1.5030    1.0249 </r>
       <r>    7.8786    0.0000 </r>
       <r>    7.8786    0.0000 </r>
       <r>    7.8985    0.0000 </r>
       <r>    9.9971    0.0000 </r>
      </set>
      <set comment="kpoint 2">
       <r>  -55.1938    1.0000 </r>
       <r>  -55.1935    1.0000 </r>
       <r>  -55.1934    1.0000 </r>
       <r>  -30.6995    1.0000 </r>
       <r>  -15.4577    1.0000 </r>
       <r>  -14.4803    1.0000 </r>
       <r>  -14.3879    1.0000 </r>
       <r>  -12.7142    1.0000 </r>
       <r>  -12.6776    1.0000 </r>
       <r>  -12.5072    1.0000 </r>
       <r>   -4.9417    1.0000 </r>
       <r>   -4.9314    1.0000 </r>
       <r>   -4.8439    1.0000 </r>
       <r>   -4.7839    1.0000 </r>
       <r>   -3.8083    1.0000 </r>
       <r>   -1.8497    1.0000 </r>
       <r>   -1.1866    1.0000 </r>
       <r>   -0.4876    1.0000 </r>
       <r>    0.4766    1.0000 </r>
       <r>    0.6548    1.0000 </r>
       <r>    0.7815    1.0000 </r>
       <r>    1.0026    1.0000 </r>
       <r>    1.3997    1.0002 </r>
       <r>    1.5856    1.0294 </r>
       <r>    8.5035    0.0000 </r>
       <r>    8.5373    0.0000 </r>
       <r>    8.9250    0.0000 </r>
       <r>   10.4288    0.0000 </r>
      </set>
      <set comment="kpoint 3">
       <r>  -55.1942    1.0000 </r>
       <r>  -55.1934    1.0000 </r>
       <r>  -55.1933    1.0000 </r>
       <r>  -30.6927    1.0000 </r>
       <r>  -15.4740    1.0000 </r>
       <r>  -14.4687    1.0000 </r>
       <r>  -14.3641    1.0000 </r>
       <r>  -12.7136    1.0000 </r>
       <r>  -12.6507    1.0000 </r>
       <r>  -12.3668    1.0000 </r>
       <r>   -5.5136    1.0000 </r>
       <r>   -5.0301    1.0000 </r>
       <r>   -5.0119    1.0000 </r>
       <r>   -4.8441    1.0000 </r>
       <r>   -3.8068    1.0000 </r>
       <r>   -1.7640    1.0000 </r>
       <r>   -1.1339    1.0000 </r>
       <r>   -0.3626    1.0000 </r>
       <r>    0.2504    1.0000 </r>
       <r>    0.5558    1.0000 </r>
       <r>    0.9310    1.0000 </r>
       <r>    1.0479    1.0000 </r>
       <r>    1.2233    1.0004 </r>
       <r>    1.4879    1.0074 </r>
       <r>    9.1960    0.0000 </r>
       <r>    9.2920    0.0000 </r>
       <r>   10.2351    0.0000 </r>
       <r>   10.4266    0.0000 </r>
      </set>
      <set comment="kpoint 4">
       <r>  -55.1938    1.0000 </r>
       <r>  -55.1938    1.0000 </r>
       <r>  -55.1934    1.0000 </r>
       <r>  -30.6930    1.0000 </r>
       <r>  -15.3497    1.0000 </r>
       <r>  -14.5557    1.0000 </r>
       <r>  -14.3903    1.0000 </r>
       <r>  -12.7042    1.0000 </r>
       <r>  -12.6047    1.0000 </r>
       <r>  -12.4869    1.0000 </r>
       <r>   -5.0602    1.0000 </r>
       <r>   -4.9999    1.0000 </r>
       <r>   -4.9461    1.0000 </r>
       <r>   -4.9371    1.0000 </r>
       <r>   -4.4696    1.0000 </r>
       <r>   -1.9949    1.0000 </r>
       <r>   -0.7529    1.0000 </r>
       <r>    0.0475    1.0000 </r>
       <r>    0.0880    1.0000 </r>
       <r>    0.3926    1.0000 </r>
       <r>    0.6937    1.0000 </r>
       <r>    1.1939    1.0000 </r>
       <r>    1.3284    1.0049 </r>
       <r>    2.0415    0.3370 </r>
       <r>    8.9102    0.0000 </r>
       <r>    9.2459    0.0000 </r>
       <r>    9.3775    0.0000 </r>
       <r>   10.6540    0.0000 </r>
      </set>
      <set comment="kpoint 5">
       <r>  -55.1942    1.0000 </r>
       <r>  -55.1938    1.0000 </r>
       <r>  -55.1934    1.0000 </r>
       <r>  -30.6865    1.0000 </r>
       <r>  -15.2689    1.0000 </r>
       <r>  -14.5825    1.0000 </r>
       <r>  -14.3902    1.0000 </r>
       <r>  -12.7101    1.0000 </r>
       <r>  -12.5624    1.0000 </r>
       <r>  -12.4366    1.0000 </r>
       <r>   -5.5609    1.0000 </r>
       <r>   -5.1741    1.0000 </r>
       <r>   -5.0317    1.0000 </r>
       <r>   -4.9506    1.0000 </r>
       <r>   -4.6214    1.0000 </r>
       <r>   -1.9224    1.0000 </r>
       <r>   -0.5498    1.0000 </r>
       <r>   -0.3428    1.0000 </r>
       <r>    0.2386    1.0000 </r>
       <r>    0.3707    1.0000 </r>
       <r>    0.8373    1.0000 </r>
       <r>    1.1304    1.0000 </r>
       <r>    1.4241    1.0017 </r>
       <r>    2.2986    0.0309 </r>
       <r>    9.5076    0.0000 </r>
       <r>    9.9121    0.0000 </r>
       <r>   10.1348    0.0000 </r>
       <r>   10.8119    0.0000 </r>
      </set>
      <set comment="kpoint 6">
       <r>  -55.1941    1.0000 </r>
       <r>  -55.1940    1.0000 </r>
       <r>  -55.1933    1.0000 </r>
       <r>  -30.6803    1.0000 </r>
       <r>  -14.9758    1.0000 </r>
       <r>  -14.6821    1.0000 </r>
       <r>  -14.5142    1.0000 </r>
       <r>  -12.6846    1.0000 </r>
       <r>  -12.5089    1.0000 </r>
       <r>  -12.4831    1.0000 </r>
       <r>   -5.7349    1.0000 </r>
       <r>   -5.3157    1.0000 </r>
       <r>   -5.1700    1.0000 </r>
       <r>   -5.0485    1.0000 </r>
       <r>   -5.0453    1.0000 </r>
       <r>   -1.8800    1.0000 </r>
       <r>   -0.5011    1.0000 </r>
       <r>   -0.1114    1.0000 </r>
       <r>    0.3293    1.0000 </r>
       <r>    0.3423    1.0000 </r>
       <r>    0.7820    1.0000 </r>
       <r>    0.9056    1.0000 </r>
       <r>    1.7563    1.0031 </r>
       <r>    2.9435    0.0000 </r>
       <r>    9.7204    0.0000 </r>
       <r>   10.0013    0.0000 </r>
       <r>   10.7634    0.0000 </r>
       <r>   10.8234    0.0000 </r>
      </set>
      <set comment="kpoint 7">
       <r>  -55.1939    1.0000 </r>
       <r>  -55.1937    1.0000 </r>
       <r>  -55.1937    1.0000 </r>
       <r>  -30.6868    1.0000 </r>
       <r>  -15.2147    1.0000 </r>
       <r>  -14.4757    1.0000 </r>
       <r>  -14.4757    1.0000 </r>
       <r>  -12.6972    1.0000 </r>
       <r>  -12.6972    1.0000 </r>
       <r>  -12.4552    1.0000 </r>
       <r>   -5.0886    1.0000 </r>
       <r>   -5.0400    1.0000 </r>
       <r>   -5.0400    1.0000 </r>
       <r>   -4.9909    1.0000 </r>
       <r>   -4.9909    1.0000 </r>
       <r>   -2.7311    1.0000 </r>
       <r>   -0.1396    1.0000 </r>
       <r>    0.1549    1.0000 </r>
       <r>    0.1549    1.0000 </r>
       <r>    0.5293    1.0000 </r>
       <r>    0.5293    1.0000 </r>
       <r>    1.4028    1.0000 </r>
       <r>    1.9848    0.8934 </r>
       <r>    1.9848    0.1863 </r>
       <r>    9.3612    0.0000 </r>
       <r>    9.3663    0.0000 </r>
       <r>    9.3928    0.0000 </r>
       <r>   10.6707    0.0000 </r>
      </set>
      <set comment="kpoint 8">
       <r>  -55.1942    1.0000 </r>
       <r>  -55.1939    1.0000 </r>
       <r>  -55.1937    1.0000 </r>
       <r>  -30.6806    1.0000 </r>
       <r>  -15.0746    1.0000 </r>
       <r>  -14.5573    1.0000 </r>
       <r>  -14.3874    1.0000 </r>
       <r>  -12.7997    1.0000 </r>
       <r>  -12.6092    1.0000 </r>
       <r>  -12.5037    1.0000 </r>
       <r>   -5.5872    1.0000 </r>
       <r>   -5.1884    1.0000 </r>
       <r>   -5.1144    1.0000 </r>
       <r>   -5.0441    1.0000 </r>
       <r>   -4.9969    1.0000 </r>
       <r>   -2.9220    1.0000 </r>
       <r>   -0.2804    1.0000 </r>
       <r>    0.1219    1.0000 </r>
       <r>    0.2096    1.0000 </r>
       <r>    0.5597    1.0000 </r>
       <r>    1.1641    1.0000 </r>
       <r>    1.5410    1.0000 </r>
       <r>    1.8837    0.9235 </r>
       <r>    2.3970   -0.0121 </r>
       <r>    9.6291    0.0000 </r>
       <r>    9.7893    0.0000 </r>
       <r>    9.8208    0.0000 </r>
       <r>   10.3971    0.0000 </r>
      </set>
      <set comment="kpoint 9">
       <r>  -55.1942    1.0000 </r>
       <r>  -55.1941    1.0000 </r>
       <r>  -55.1938    1.0000 </r>
       <r>  -30.6747    1.0000 </r>
       <r>  -14.8018    1.0000 </r>
       <r>  -14.5586    1.0000 </r>
       <r>  -14.4376    1.0000 </r>
       <r>  -12.8148    1.0000 </r>
       <r>  -12.6834    1.0000 </r>
       <r>  -12.6049    1.0000 </r>
       <r>   -5.7332    1.0000 </r>
       <r>   -5.3798    1.0000 </r>
       <r>   -5.2633    1.0000 </r>
       <r>   -5.1304    1.0000 </r>
       <r>   -5.1264    1.0000 </r>
       <r>   -3.2570    1.0000 </r>
       <r>   -0.2458    1.0000 </r>
       <r>    0.1494    1.0000 </r>
       <r>    0.1697    1.0000 </r>
       <r>    1.1652    1.0000 </r>
       <r>    1.3167    1.0000 </r>
       <r>    1.7909    1.0000 </r>
       <r>    1.9288    0.7367 </r>
       <r>    2.9359    0.0000 </r>
       <r>    9.3682    0.0000 </r>
       <r>    9.6883    0.0000 </r>
       <r>    9.7508    0.0000 </r>
       <r>   10.5969    0.0000 </r>
      </set>
      <set comment="kpoint 10">
       <r>  -55.1942    1.0000 </r>
       <r>  -55.1939    1.0000 </r>
       <r>  -55.1939    1.0000 </r>
       <r>  -30.6689    1.0000 </r>
       <r>  -14.5632    1.0000 </r>
       <r>  -14.4072    1.0000 </r>
       <r>  -14.4072    1.0000 </r>
       <r>  -12.8837    1.0000 </r>
       <r>  -12.8837    1.0000 </r>
       <r>  -12.7871    1.0000 </r>
       <r>   -5.7313    1.0000 </r>
       <r>   -5.7313    1.0000 </r>
       <r>   -5.2252    1.0000 </r>
       <r>   -5.1994    1.0000 </r>
       <r>   -5.1994    1.0000 </r>
       <r>   -3.8498    1.0000 </r>
       <r>    0.0039    1.0000 </r>
       <r>    0.1161    1.0000 </r>
       <r>    0.1161    1.0000 </r>
       <r>    1.7312    1.0000 </r>
       <r>    1.7312    1.0000 </r>
       <r>    1.8512    1.0000 </r>
       <r>    2.9196   -0.3130 </r>
       <r>    2.9196    0.0000 </r>
       <r>    8.9660    0.0000 </r>
       <r>    9.0612    0.0000 </r>
       <r>    9.0612    0.0000 </r>
       <r>   11.3196    0.0000 </r>
      </set>
     </set>
     <set comment="spin 2">
      <set comment="kpoint 1">
       <r>  -50.7319    1.0000 </r>
       <r>  -50.7319    1.0000 </r>
       <r>  -50.7319    1.0000 </r>
       <r>  -30.7046    1.0000 </r>
       <r>  -15.2715    1.0000 </r>
       <r>  -13.9903    1.0000 </r>
       <r>  -13.9903    1.0000 </r>
       <r>  -12.7000    1.0000 </r>
       <r>  -12.7000    1.0000 </r>
       <r>  -12.6595    1.0000 </r>
       <r>   -1.6624    1.0000 </r>
       <r>   -1.4636    1.0000 </r>
       <r>   -1.4636    1.0000 </r>
       <r>    0.8920    1.0000 </r>
       <r>    0.8920    1.0000 </r>
       <r>    1.1664    1.0000 </r>
       <r>    1.2751    1.0000 </r>
       <r>    1.4938    1.0000 </r>
       <r>    1.4938    1.0000 </r>
       <r>    3.4967    0.0000 </r>
       <r>    3.5383    0.0000 </r>
       <r>    3.5383    0.0000 </r>
       <r>    4.0322    0.0000 </r>
       <r>    4.0322    0.0000 </r>
       <r>    7.9260    0.0000 </r>
       <r>    7.9260    0.0000 </r>
       <r>    8.1213    0.0000 </r>
       <r>   10.2363    0.0000 </r>
      </set>
      <set comment="kpoint 2">
       <r>  -50.7325    1.0000 </r>
       <r>  -50.7319    1.0000 </r>
       <r>  -50.7318    1.0000 </r>
       <r>  -30.6978    1.0000 </r>
       <r>  -15.2477    1.0000 </r>
       <r>  -14.1625    1.0000 </r>
       <r>  -13.9621    1.0000 </r>
       <r>  -12.7032    1.0000 </r>
       <r>  -12.6622    1.0000 </r>
       <r>  -12.4671    1.0000 </r>
       <r>   -2.0072    1.0000 </r>
       <r>   -1.4381    1.0000 </r>
       <r>   -1.4155    1.0000 </r>
       <r>    0.2019    1.0000 </r>
       <r>    0.3234    1.0000 </r>
       <r>    0.7999    1.0000 </r>
       <r>    1.1654    1.0000 </r>
       <r>    1.2000    1.0000 </r>
       <r>    1.3381    1.0000 </r>
       <r>    3.5441    0.0000 </r>
       <r>    3.9463    0.0000 </r>
       <r>    4.0047    0.0000 </r>
       <r>    4.0926    0.0000 </r>
       <r>    4.7947    0.0000 </r>
       <r>    8.5791    0.0000 </r>
       <r>    8.6045    0.0000 </r>
       <r>    9.1303    0.0000 </r>
       <r>   10.3201    0.0000 </r>
      </set>
      <set comment="kpoint 3">
       <r>  -50.7331    1.0000 </r>
       <r>  -50.7317    1.0000 </r>
       <r>  -50.7317    1.0000 </r>
       <r>  -30.6910    1.0000 </r>
       <r>  -15.2510    1.0000 </r>
       <r>  -14.2520    1.0000 </r>
       <r>  -13.9322    1.0000 </r>
       <r>  -12.7071    1.0000 </r>
       <r>  -12.6394    1.0000 </r>
       <r>  -12.3151    1.0000 </r>
       <r>   -2.3086    1.0000 </r>
       <r>   -1.3977    1.0000 </r>
       <r>   -1.3553    1.0000 </r>
       <r>   -0.4430    1.0000 </r>
       <r>   -0.0659    1.0000 </r>
       <r>    0.6236    1.0000 </r>
       <r>    0.9364    1.0000 </r>
       <r>    0.9696    1.0000 </r>
       <r>    1.2150    1.0000 </r>
       <r>    3.5686    0.0000 </r>
       <r>    4.0078    0.0000 </r>
       <r>    4.4199    0.0000 </r>
       <r>    4.4373    0.0000 </r>
       <r>    5.2865    0.0000 </r>
       <r>    9.2874    0.0000 </r>
       <r>    9.3695    0.0000 </r>
       <r>   10.2624    0.0000 </r>
       <r>   10.7098    0.0000 </r>
      </set>
      <set comment="kpoint 4">
       <r>  -50.7324    1.0000 </r>
       <r>  -50.7324    1.0000 </r>
       <r>  -50.7317    1.0000 </r>
       <r>  -30.6914    1.0000 </r>
       <r>  -15.1463    1.0000 </r>
       <r>  -14.2704    1.0000 </r>
       <r>  -14.0125    1.0000 </r>
       <r>  -12.6936    1.0000 </r>
       <r>  -12.5569    1.0000 </r>
       <r>  -12.4618    1.0000 </r>
       <r>   -2.3065    1.0000 </r>
       <r>   -1.4873    1.0000 </r>
       <r>   -1.3350    1.0000 </r>
       <r>   -0.5872    1.0000 </r>
       <r>    0.2052    1.0000 </r>
       <r>    0.3201    1.0000 </r>
       <r>    1.0580    1.0000 </r>
       <r>    1.0991    1.0000 </r>
       <r>    1.5616    1.0141 </r>
       <r>    3.9635    0.0000 </r>
       <r>    4.0617    0.0000 </r>
       <r>    4.1753    0.0000 </r>
       <r>    4.3812    0.0000 </r>
       <r>    5.3640    0.0000 </r>
       <r>    9.0057    0.0000 </r>
       <r>    9.3068    0.0000 </r>
       <r>    9.5264    0.0000 </r>
       <r>   10.7241    0.0000 </r>
      </set>
      <set comment="kpoint 5">
       <r>  -50.7331    1.0000 </r>
       <r>  -50.7324    1.0000 </r>
       <r>  -50.7318    1.0000 </r>
       <r>  -30.6849    1.0000 </r>
       <r>  -15.0521    1.0000 </r>
       <r>  -14.3782    1.0000 </r>
       <r>  -14.0201    1.0000 </r>
       <r>  -12.7031    1.0000 </r>
       <r>  -12.5339    1.0000 </r>
       <r>  -12.3927    1.0000 </r>
       <r>   -2.5929    1.0000 </r>
       <r>   -1.5265    1.0000 </r>
       <r>   -1.2223    1.0000 </r>
       <r>   -1.1505    1.0000 </r>
       <r>   -0.1745    1.0000 </r>
       <r>    0.3097    1.0000 </r>
       <r>    0.8009    1.0000 </r>
       <r>    1.0156    1.0000 </r>
       <r>    1.6548    1.0362 </r>
       <r>    4.0214    0.0000 </r>
       <r>    4.3866    0.0000 </r>
       <r>    4.4361    0.0000 </r>
       <r>    4.4906    0.0000 </r>
       <r>    5.9211    0.0000 </r>
       <r>    9.6050    0.0000 </r>
       <r>    9.9934    0.0000 </r>
       <r>   10.2203    0.0000 </r>
       <r>   10.8495    0.0000 </r>
      </set>
      <set comment="kpoint 6">
       <r>  -50.7330    1.0000 </r>
       <r>  -50.7329    1.0000 </r>
       <r>  -50.7316    1.0000 </r>
       <r>  -30.6788    1.0000 </r>
       <r>  -14.7534    1.0000 </r>
       <r>  -14.4959    1.0000 </r>
       <r>  -14.2131    1.0000 </r>
       <r>  -12.6809    1.0000 </r>
       <r>  -12.4666    1.0000 </r>
       <r>  -12.4475    1.0000 </r>
       <r>   -2.9220    1.0000 </r>
       <r>   -1.6392    1.0000 </r>
       <r>   -1.6342    1.0000 </r>
       <r>   -0.9708    1.0000 </r>
       <r>   -0.2472    1.0000 </r>
       <r>   -0.1388    1.0000 </r>
       <r>    0.8546    1.0000 </r>
       <r>    0.9144    1.0000 </r>
       <r>    2.0582    0.3252 </r>
       <r>    4.4005    0.0000 </r>
       <r>    4.4354    0.0000 </r>
       <r>    4.5249    0.0000 </r>
       <r>    4.6269    0.0000 </r>
       <r>    6.6083    0.0000 </r>
       <r>    9.7721    0.0000 </r>
       <r>   10.0894    0.0000 </r>
       <r>   10.8824    0.0000 </r>
       <r>   10.9271    0.0000 </r>
      </set>
      <set comment="kpoint 7">
       <r>  -50.7325    1.0000 </r>
       <r>  -50.7324    1.0000 </r>
       <r>  -50.7324    1.0000 </r>
       <r>  -30.6852    1.0000 </r>
       <r>  -15.0225    1.0000 </r>
       <r>  -14.1751    1.0000 </r>
       <r>  -14.1752    1.0000 </r>
       <r>  -12.6635    1.0000 </r>
       <r>  -12.6635    1.0000 </r>
       <r>  -12.4310    1.0000 </r>
       <r>   -2.5707    1.0000 </r>
       <r>   -1.4487    1.0000 </r>
       <r>   -1.4487    1.0000 </r>
       <r>   -0.6849    1.0000 </r>
       <r>   -0.3604    1.0000 </r>
       <r>   -0.3604    1.0000 </r>
       <r>    1.3534    1.0006 </r>
       <r>    1.3534    1.0009 </r>
       <r>    1.6956    1.0289 </r>
       <r>    4.1750    0.0000 </r>
       <r>    4.2521    0.0000 </r>
       <r>    4.2521    0.0000 </r>
       <r>    5.3463    0.0000 </r>
       <r>    5.3463    0.0000 </r>
       <r>    9.4576    0.0000 </r>
       <r>    9.4597    0.0000 </r>
       <r>    9.5002    0.0000 </r>
       <r>   10.7753    0.0000 </r>
      </set>
      <set comment="kpoint 8">
       <r>  -50.7331    1.0000 </r>
       <r>  -50.7324    1.0000 </r>
       <r>  -50.7324    1.0000 </r>
       <r>  -30.6790    1.0000 </r>
       <r>  -14.8698    1.0000 </r>
       <r>  -14.3516    1.0000 </r>
       <r>  -14.0649    1.0000 </r>
       <r>  -12.7868    1.0000 </r>
       <r>  -12.5737    1.0000 </r>
       <r>  -12.4739    1.0000 </r>
       <r>   -2.8596    1.0000 </r>
       <r>   -1.5226    1.0000 </r>
       <r>   -1.3969    1.0000 </r>
       <r>   -1.1401    1.0000 </r>
       <r>   -0.7110    1.0000 </r>
       <r>   -0.3501    1.0000 </r>
       <r>    1.3627    1.0055 </r>
       <r>    1.4519    1.0058 </r>
       <r>    1.7792    0.9591 </r>
       <r>    4.2628    0.0000 </r>
       <r>    4.4984    0.0000 </r>
       <r>    4.5327    0.0000 </r>
       <r>    5.3120    0.0000 </r>
       <r>    6.0641    0.0000 </r>
       <r>    9.7280    0.0000 </r>
       <r>    9.9054    0.0000 </r>
       <r>    9.9105    0.0000 </r>
       <r>   10.4714    0.0000 </r>
      </set>
      <set comment="kpoint 9">
       <r>  -50.7331    1.0000 </r>
       <r>  -50.7330    1.0000 </r>
       <r>  -50.7324    1.0000 </r>
       <r>  -30.6732    1.0000 </r>
       <r>  -14.5980    1.0000 </r>
       <r>  -14.3607    1.0000 </r>
       <r>  -14.1692    1.0000 </r>
       <r>  -12.8043    1.0000 </r>
       <r>  -12.6498    1.0000 </r>
       <r>  -12.5756    1.0000 </r>
       <r>   -3.1957    1.0000 </r>
       <r>   -1.6243    1.0000 </r>
       <r>   -1.3830    1.0000 </r>
       <r>   -1.3556    1.0000 </r>
       <r>   -0.7280    1.0000 </r>
       <r>   -0.7180    1.0000 </r>
       <r>    1.5524    1.0224 </r>
       <r>    1.5935    1.0223 </r>
       <r>    2.0909    0.1408 </r>
       <r>    4.5439    0.0000 </r>
       <r>    4.5635    0.0000 </r>
       <r>    4.6776    0.0000 </r>
       <r>    5.6102    0.0000 </r>
       <r>    6.6002    0.0000 </r>
       <r>    9.4584    0.0000 </r>
       <r>    9.7964    0.0000 </r>
       <r>    9.8723    0.0000 </r>
       <r>   10.6606    0.0000 </r>
      </set>
      <set comment="kpoint 10">
       <r>  -50.7331    1.0000 </r>
       <r>  -50.7328    1.0000 </r>
       <r>  -50.7328    1.0000 </r>
       <r>  -30.6675    1.0000 </r>
       <r>  -14.3675    1.0000 </r>
       <r>  -14.1888    1.0000 </r>
       <r>  -14.1888    1.0000 </r>
       <r>  -12.8675    1.0000 </r>
       <r>  -12.8675    1.0000 </r>
       <r>  -12.7647    1.0000 </r>
       <r>   -3.5513    1.0000 </r>
       <r>   -1.6122    1.0000 </r>
       <r>   -1.6122    1.0000 </r>
       <r>   -1.1228    1.0000 </r>
       <r>   -0.9955    1.0000 </r>
       <r>   -0.9955    1.0000 </r>
       <r>    2.0426    0.6126 </r>
       <r>    2.0426    0.5905 </r>
       <r>    2.1551   -0.0151 </r>
       <r>    4.7229    0.0000 </r>
       <r>    4.7375    0.0000 </r>
       <r>    4.7375    0.0000 </r>
       <r>    6.5869    0.0000 </r>
       <r>    6.5869    0.0000 </r>
       <r>    9.0653    0.0000 </r>
       <r>    9.1562    0.0000 </r>
       <r>    9.1563    0.0000 </r>
       <r>   11.3473    0.0000 </r>
      </set>
     </set>
    </set>
   </array>
  </eigenvalues>
  <separator name="orbital magnetization" >
   <v name="MAGDIPOLOUT">      0.00000000      0.00000000      0.00000000</v>
  </separator>
 </calculation>
 <structure name="finalpos" >
  <crystal>
   <varray name="basis" >
    <v>       4.00000000       0.00000000       0.00000000 </v>
    <v>       0.00000000       4.00000000       0.00000000 </v>
    <v>       0.00000000       0.00000000       4.00000000 </v>
   </varray>
   <i name="volume">     64.00000000 </i>
   <varray name="rec_basis" >
    <v>       0.25000000       0.00000000       0.00000000 </v>
    <v>       0.00000000       0.25000000       0.00000000 </v>
    <v>       0.00000000       0.00000000       0.25000000 </v>
   </varray>
  </crystal>
  <varray name="positions" >
   <v>       0.50000000       0.50000000       0.50000000 </v>
   <v>       0.00000000       0.00000000       0.00000000 </v>
   <v>       0.50000000       0.00000000       0.00000000 </v>
   <v>       0.00000000       0.50000000       0.00000000 </v>
   <v>       0.00000000       0.00000000       0.50000000 </v>
  </varray>
 </structure>
</modeling>
