   1   1   0   0
  0.2160000E+03  0.6000000E-09  0.6000000E-09  0.6000000E-09  0.1000000E-15
  1.000000000000000E-004
  CAR 
 Pt cube particle                        
      2.87388350     -7.12666962  301     -4.98463939      1.00000000
     -7.127  0.0000E+00  0.0000E+00
     -7.093  0.0000E+00  0.0000E+00
     -7.060  0.0000E+00  0.0000E+00
     -7.027  0.0000E+00  0.0000E+00
     -6.993  0.0000E+00  0.0000E+00
     -6.960  0.0000E+00  0.0000E+00
     -6.927  0.0000E+00  0.0000E+00
     -6.893  0.0000E+00  0.0000E+00
     -6.860  0.0000E+00  0.0000E+00
     -6.827  0.0000E+00  0.0000E+00
     -6.793  0.0000E+00  0.0000E+00
     -6.760 -0.7503E-29 -0.2501E-30
     -6.727 -0.2350E-27 -0.8084E-29
     -6.693 -0.3101E-26 -0.1115E-27
     -6.660 -0.4027E-25 -0.1454E-26
     -6.627 -0.4944E-24 -0.1793E-25
     -6.593 -0.5738E-23 -0.2092E-24
     -6.560 -0.6298E-22 -0.2309E-23
     -6.527 -0.6534E-21 -0.2409E-22
     -6.493 -0.6409E-20 -0.2377E-21
     -6.460 -0.5943E-19 -0.2219E-20
     -6.427 -0.5210E-18 -0.1959E-19
     -6.393 -0.4317E-17 -0.1635E-18
     -6.360 -0.3381E-16 -0.1291E-17
     -6.327 -0.2503E-15 -0.9635E-17
     -6.293 -0.1718E-14 -0.6690E-16
     -6.260 -0.1118E-13 -0.4396E-15
     -6.227 -0.7003E-13 -0.2774E-14
     -6.193 -0.4123E-12 -0.1652E-13
     -6.160 -0.2294E-11 -0.9300E-13
     -6.127 -0.1206E-10 -0.4949E-12
     -6.093 -0.5984E-10 -0.2490E-11
     -6.060 -0.2804E-09 -0.1184E-10
     -6.027 -0.1240E-08 -0.5317E-10
     -5.993 -0.5175E-08 -0.2257E-09
     -5.960 -0.2038E-07 -0.9049E-09
     -5.927 -0.7567E-07 -0.3427E-08
     -5.893 -0.2649E-06 -0.1226E-07
     -5.860 -0.8740E-06 -0.4139E-07
     -5.827 -0.2716E-05 -0.1319E-06
     -5.793 -0.7945E-05 -0.3968E-06
     -5.760 -0.2186E-04 -0.1125E-05
     -5.727 -0.5650E-04 -0.3009E-05
     -5.693 -0.1371E-03 -0.7579E-05
     -5.660 -0.3117E-03 -0.1797E-04
     -5.627 -0.6628E-03 -0.4007E-04
     -5.593 -0.1315E-02 -0.8389E-04
     -5.560 -0.2422E-02 -0.1646E-03
     -5.527 -0.4124E-02 -0.3021E-03
     -5.493 -0.6430E-02 -0.5165E-03
     -5.460 -0.9044E-02 -0.8179E-03
     -5.427 -0.1114E-01 -0.1189E-02
     -5.393 -0.1121E-01 -0.1563E-02
     -5.360 -0.7036E-02 -0.1798E-02
     -5.327  0.3918E-02 -0.1667E-02
     -5.293  0.2381E-01 -0.8731E-03
     -5.260  0.5346E-01  0.9089E-03
     -5.227  0.9141E-01  0.3956E-02
     -5.193  0.1336E+00  0.8410E-02
     -5.160  0.1740E+00  0.1421E-01
     -5.127  0.2056E+00  0.2106E-01
     -5.093  0.2229E+00  0.2849E-01
     -5.060  0.2228E+00  0.3592E-01
     -5.027  0.2061E+00  0.4279E-01
     -4.993  0.1766E+00  0.4868E-01
     -4.960  0.1399E+00  0.5334E-01
     -4.927  0.1020E+00  0.5674E-01
     -4.893  0.6763E-01  0.5900E-01
     -4.860  0.3970E-01  0.6032E-01
     -4.827  0.1921E-01  0.6096E-01
     -4.793  0.5698E-02  0.6115E-01
     -4.760 -0.2100E-02  0.6108E-01
     -4.727 -0.5736E-02  0.6089E-01
     -4.693 -0.6672E-02  0.6067E-01
     -4.660 -0.6096E-02  0.6046E-01
     -4.627 -0.4863E-02  0.6030E-01
     -4.593 -0.3515E-02  0.6018E-01
     -4.560 -0.2340E-02  0.6011E-01
     -4.527 -0.1447E-02  0.6006E-01
     -4.493 -0.8350E-03  0.6003E-01
     -4.460 -0.4508E-03  0.6001E-01
     -4.427 -0.2281E-03  0.6001E-01
     -4.393 -0.1083E-03  0.6000E-01
     -4.360 -0.4832E-04  0.6000E-01
     -4.327 -0.2026E-04  0.6000E-01
     -4.293 -0.7986E-05  0.6000E-01
     -4.260 -0.2963E-05  0.6000E-01
     -4.227 -0.1035E-05  0.6000E-01
     -4.193 -0.3402E-06  0.6000E-01
     -4.160 -0.1054E-06  0.6000E-01
     -4.127 -0.3077E-07  0.6000E-01
     -4.093 -0.8466E-08  0.6000E-01
     -4.060 -0.2197E-08  0.6000E-01
     -4.026 -0.5375E-09  0.6000E-01
     -3.993 -0.1241E-09  0.6000E-01
     -3.960 -0.2702E-10  0.6000E-01
     -3.926 -0.5554E-11  0.6000E-01
     -3.893 -0.1078E-11  0.6000E-01
     -3.860 -0.1974E-12  0.6000E-01
     -3.826 -0.3404E-13  0.6000E-01
     -3.793 -0.5595E-14  0.6000E-01
     -3.760 -0.8659E-15  0.6000E-01
     -3.726 -0.1332E-15  0.6000E-01
     -3.693  0.0000E+00  0.6000E-01
     -3.660  0.0000E+00  0.6000E-01
     -3.626  0.0000E+00  0.6000E-01
     -3.593  0.0000E+00  0.6000E-01
     -3.560  0.0000E+00  0.6000E-01
     -3.526  0.0000E+00  0.6000E-01
     -3.493  0.0000E+00  0.6000E-01
     -3.460  0.0000E+00  0.6000E-01
     -3.426  0.0000E+00  0.6000E-01
     -3.393  0.0000E+00  0.6000E-01
     -3.360  0.0000E+00  0.6000E-01
     -3.326  0.0000E+00  0.6000E-01
     -3.293  0.0000E+00  0.6000E-01
     -3.260  0.0000E+00  0.6000E-01
     -3.226  0.0000E+00  0.6000E-01
     -3.193  0.0000E+00  0.6000E-01
     -3.160  0.0000E+00  0.6000E-01
     -3.126  0.0000E+00  0.6000E-01
     -3.093  0.0000E+00  0.6000E-01
     -3.060  0.0000E+00  0.6000E-01
     -3.026  0.0000E+00  0.6000E-01
     -2.993  0.0000E+00  0.6000E-01
     -2.960  0.0000E+00  0.6000E-01
     -2.926  0.0000E+00  0.6000E-01
     -2.893  0.0000E+00  0.6000E-01
     -2.860  0.0000E+00  0.6000E-01
     -2.826  0.0000E+00  0.6000E-01
     -2.793  0.0000E+00  0.6000E-01
     -2.760  0.0000E+00  0.6000E-01
     -2.726  0.0000E+00  0.6000E-01
     -2.693  0.0000E+00  0.6000E-01
     -2.660  0.0000E+00  0.6000E-01
     -2.626  0.0000E+00  0.6000E-01
     -2.593  0.0000E+00  0.6000E-01
     -2.560  0.0000E+00  0.6000E-01
     -2.526  0.0000E+00  0.6000E-01
     -2.493  0.0000E+00  0.6000E-01
     -2.460  0.0000E+00  0.6000E-01
     -2.426  0.0000E+00  0.6000E-01
     -2.393  0.0000E+00  0.6000E-01
     -2.360  0.0000E+00  0.6000E-01
     -2.326  0.0000E+00  0.6000E-01
     -2.293  0.0000E+00  0.6000E-01
     -2.260  0.0000E+00  0.6000E-01
     -2.226  0.0000E+00  0.6000E-01
     -2.193  0.0000E+00  0.6000E-01
     -2.160  0.0000E+00  0.6000E-01
     -2.126  0.0000E+00  0.6000E-01
     -2.093  0.0000E+00  0.6000E-01
     -2.060  0.0000E+00  0.6000E-01
     -2.026  0.0000E+00  0.6000E-01
     -1.993  0.0000E+00  0.6000E-01
     -1.960  0.0000E+00  0.6000E-01
     -1.926  0.0000E+00  0.6000E-01
     -1.893  0.0000E+00  0.6000E-01
     -1.860  0.0000E+00  0.6000E-01
     -1.826  0.0000E+00  0.6000E-01
     -1.793  0.0000E+00  0.6000E-01
     -1.760  0.0000E+00  0.6000E-01
     -1.726  0.0000E+00  0.6000E-01
     -1.693  0.0000E+00  0.6000E-01
     -1.660  0.0000E+00  0.6000E-01
     -1.626  0.0000E+00  0.6000E-01
     -1.593  0.0000E+00  0.6000E-01
     -1.560  0.0000E+00  0.6000E-01
     -1.526  0.0000E+00  0.6000E-01
     -1.493  0.0000E+00  0.6000E-01
     -1.460  0.0000E+00  0.6000E-01
     -1.426  0.0000E+00  0.6000E-01
     -1.393  0.0000E+00  0.6000E-01
     -1.360  0.0000E+00  0.6000E-01
     -1.326  0.0000E+00  0.6000E-01
     -1.293  0.0000E+00  0.6000E-01
     -1.260  0.0000E+00  0.6000E-01
     -1.226  0.0000E+00  0.6000E-01
     -1.193  0.0000E+00  0.6000E-01
     -1.160  0.0000E+00  0.6000E-01
     -1.126  0.0000E+00  0.6000E-01
     -1.093  0.0000E+00  0.6000E-01
     -1.060  0.0000E+00  0.6000E-01
     -1.026  0.0000E+00  0.6000E-01
     -0.993  0.0000E+00  0.6000E-01
     -0.960  0.0000E+00  0.6000E-01
     -0.926  0.0000E+00  0.6000E-01
     -0.893  0.0000E+00  0.6000E-01
     -0.860  0.0000E+00  0.6000E-01
     -0.826 -0.1038E-27  0.6000E-01
     -0.793 -0.1320E-26  0.6000E-01
     -0.760 -0.1705E-25  0.6000E-01
     -0.726 -0.2085E-24  0.6000E-01
     -0.693 -0.2406E-23  0.6000E-01
     -0.660 -0.2625E-22  0.6000E-01
     -0.626 -0.2706E-21  0.6000E-01
     -0.593 -0.2637E-20  0.6000E-01
     -0.560 -0.2429E-19  0.6000E-01
     -0.526 -0.2114E-18  0.6000E-01
     -0.493 -0.1739E-17  0.6000E-01
     -0.460 -0.1352E-16  0.6000E-01
     -0.426 -0.9927E-16  0.6000E-01
     -0.393 -0.6722E-15  0.6000E-01
     -0.360 -0.4366E-14  0.6000E-01
     -0.326 -0.2707E-13  0.6000E-01
     -0.293 -0.1580E-12  0.6000E-01
     -0.260 -0.8711E-12  0.6000E-01
     -0.226 -0.4536E-11  0.6000E-01
     -0.193 -0.2231E-10  0.6000E-01
     -0.160 -0.1036E-09  0.6000E-01
     -0.126 -0.4538E-09  0.6000E-01
     -0.093 -0.1878E-08  0.6000E-01
     -0.060 -0.7330E-08  0.6000E-01
     -0.026 -0.2701E-07  0.6000E-01
      0.007 -0.9388E-07  0.6000E-01
      0.040 -0.3078E-06  0.6000E-01
      0.074 -0.9518E-06  0.6000E-01
      0.107 -0.2775E-05  0.6000E-01
      0.140 -0.7624E-05  0.6000E-01
      0.174 -0.1973E-04  0.6000E-01
      0.207 -0.4808E-04  0.6000E-01
      0.240 -0.1102E-03  0.5999E-01
      0.274 -0.2374E-03  0.5999E-01
      0.307 -0.4799E-03  0.5997E-01
      0.340 -0.9081E-03  0.5994E-01
      0.374 -0.1603E-02  0.5989E-01
      0.407 -0.2629E-02  0.5980E-01
      0.440 -0.3967E-02  0.5967E-01
      0.474 -0.5432E-02  0.5949E-01
      0.507 -0.6553E-02  0.5927E-01
      0.540 -0.6485E-02  0.5905E-01
      0.574 -0.3998E-02  0.5892E-01
      0.607  0.2393E-02  0.5900E-01
      0.640  0.1409E-01  0.5947E-01
      0.674  0.3192E-01  0.6053E-01
      0.707  0.5557E-01  0.6238E-01
      0.740  0.8320E-01  0.6516E-01
      0.774  0.1114E+00  0.6887E-01
      0.807  0.1358E+00  0.7340E-01
      0.840  0.1519E+00  0.7846E-01
      0.874  0.1565E+00  0.8368E-01
      0.907  0.1484E+00  0.8863E-01
      0.940  0.1292E+00  0.9293E-01
      0.974  0.1024E+00  0.9635E-01
      1.007  0.7287E-01  0.9878E-01
      1.040  0.4513E-01  0.1003E+00
      1.074  0.2250E-01  0.1010E+00
      1.107  0.6525E-02  0.1012E+00
      1.140 -0.2945E-02  0.1011E+00
      1.174 -0.7181E-02  0.1009E+00
      1.207 -0.7922E-02  0.1006E+00
      1.240 -0.6803E-02  0.1004E+00
      1.274 -0.5036E-02  0.1003E+00
      1.307 -0.3338E-02  0.1001E+00
      1.340 -0.2018E-02  0.1001E+00
      1.374 -0.1124E-02  0.1000E+00
      1.407 -0.5808E-03  0.1000E+00
      1.440 -0.2795E-03  0.1000E+00
      1.474 -0.1257E-03  0.1000E+00
      1.507 -0.5289E-04  0.1000E+00
      1.540 -0.2088E-04  0.1000E+00
      1.574 -0.7736E-05  0.1000E+00
      1.607 -0.2695E-05  0.1000E+00
      1.640 -0.8828E-06  0.1000E+00
      1.674 -0.2723E-06  0.1000E+00
      1.707 -0.7907E-07  0.1000E+00
      1.740 -0.2164E-07  0.1000E+00
      1.774 -0.5580E-08  0.1000E+00
      1.807 -0.1357E-08  0.1000E+00
      1.840 -0.3113E-09  0.1000E+00
      1.874 -0.6735E-10  0.1000E+00
      1.907 -0.1375E-10  0.1000E+00
      1.940 -0.2650E-11  0.1000E+00
      1.974 -0.4821E-12  0.1000E+00
      2.007 -0.8286E-13  0.1000E+00
      2.041 -0.1339E-13  0.1000E+00
      2.074 -0.1998E-14  0.1000E+00
      2.107 -0.3997E-15  0.1000E+00
      2.141  0.0000E+00  0.1000E+00
      2.174  0.0000E+00  0.1000E+00
      2.207  0.0000E+00  0.1000E+00
      2.241  0.0000E+00  0.1000E+00
      2.274  0.0000E+00  0.1000E+00
      2.307  0.0000E+00  0.1000E+00
      2.341  0.0000E+00  0.1000E+00
      2.374  0.0000E+00  0.1000E+00
      2.407  0.0000E+00  0.1000E+00
      2.441  0.0000E+00  0.1000E+00
      2.474  0.0000E+00  0.1000E+00
      2.507  0.0000E+00  0.1000E+00
      2.541  0.0000E+00  0.1000E+00
      2.574  0.0000E+00  0.1000E+00
      2.607  0.0000E+00  0.1000E+00
      2.641  0.0000E+00  0.1000E+00
      2.674  0.0000E+00  0.1000E+00
      2.707  0.0000E+00  0.1000E+00
      2.741  0.0000E+00  0.1000E+00
      2.774  0.0000E+00  0.1000E+00
      2.807  0.0000E+00  0.1000E+00
      2.841  0.0000E+00  0.1000E+00
      2.874  0.0000E+00  0.1000E+00
