    1    1  200    1
  0.2160000E+03  0.6000000E-09  0.6000000E-09  0.6000000E-09  0.1000000E-15
  1.000000000000000E-004
  CAR 
 Pt cube particle                        
     10      1     10
 
  0.0000000E+00  0.0000000E+00  0.0000000E+00  0.1000000E+01
    1       -5.126670   0.963367
    2       -5.126499   0.963078
    3       -5.095384   0.898166
    4       -5.095312   0.897987
    5       -5.095244   0.897818
    6       -4.955853   0.379584
    7        0.774246   0.000000
    8        0.873811   0.000000
    9        0.873831   0.000000
   10        0.873883   0.000000
