       N       E                     dE             d eps       ncg     rms          rms(c)
RMM:   1     0.747363501391E+02    0.74736E+02   -0.11522E+03    10   0.314E+02
RMM:   2     0.488616452219E+02   -0.25875E+02   -0.22893E+02    10   0.730E+01
RMM:   3     0.222806726191E+02   -0.26581E+02   -0.15650E+02    10   0.547E+01
RMM:   4     0.725732410494E+01   -0.15023E+02   -0.11707E+02    10   0.598E+01
RMM:   5     0.100141855642E+01   -0.62559E+01   -0.31890E+01    10   0.352E+01
RMM:   6     0.338497507545E+00   -0.66292E+00   -0.60402E+00    10   0.225E+01
RMM:   7     0.129709844752E+00   -0.20879E+00   -0.18006E+00    10   0.134E+01
RMM:   8    -0.177910389982E+00   -0.30762E+00   -0.11874E+00    10   0.794E+00
RMM:   9    -0.492407205344E+00   -0.31450E+00   -0.10241E+00    21   0.614E+00
RMM:  10    -0.504093286368E+00   -0.11686E-01   -0.82178E-02    23   0.126E+00
RMM:  11    -0.504346577674E+00   -0.25329E-03   -0.24056E-03    15   0.408E-01
RMM:  12    -0.504379625986E+00   -0.33048E-04   -0.33013E-04    13   0.660E-02    0.320E+00
RMM:  13    -0.111235613022E+01   -0.60798E+00   -0.12364E+00    20   0.106E+01    0.568E+00
RMM:  14    -0.466818209397E+00    0.64554E+00   -0.25411E-01    20   0.634E+00    0.213E+00
RMM:  15    -0.438257707136E+00    0.28561E-01   -0.71366E-02    20   0.194E+00    0.685E-01
RMM:  16    -0.494087875676E+00   -0.55830E-01   -0.65275E-02    22   0.240E+00    0.278E+00
RMM:  17    -0.465997248303E+00    0.28091E-01   -0.11387E-01    20   0.386E+00    0.240E+00
RMM:  18    -0.438313844026E+00    0.27683E-01   -0.89909E-03    20   0.115E+00    0.403E-01
RMM:  19    -0.437572388617E+00    0.74146E-03   -0.55847E-03    20   0.683E-01    0.588E-01
RMM:  20    -0.434986872252E+00    0.25855E-02   -0.14720E-03    17   0.426E-01    0.197E-01
RMM:  21    -0.434735105391E+00    0.25177E-03   -0.11443E-03    20   0.369E-01    0.220E-01
RMM:  22    -0.434441309172E+00    0.29380E-03   -0.77689E-04    17   0.306E-01    0.130E-01
RMM:  23    -0.434539069739E+00   -0.97761E-04   -0.73232E-04    17   0.270E-01
   1 F= -.43453907E+00 E0= -.40095173E+00  d E =-.434539E+00
