<?xml version="1.0" encoding="ISO-8859-1"?>
<modeling>
 <generator>
  <i name="program" type="string">vasp </i>
  <i name="version" type="string">5.4.1  </i>
  <i name="subversion" type="string">24Jun15 (build Jan 06 2016 13:19:48) gamma-only                       parallel </i>
  <i name="platform" type="string">IFC91_ompi </i>
  <i name="date" type="string">2016 02 18 </i>
  <i name="time" type="string">15:04:02 </i>
 </generator>
 <incar>
  <i type="string" name="SYSTEM"> Pt cube particle</i>
  <i type="string" name="PREC">normal</i>
  <i type="int" name="IALGO">    48</i>
  <i type="int" name="IBRION">     2</i>
  <i name="EDIFF">      0.00010000</i>
  <i name="EDIFFG">     -0.00500000</i>
  <i type="int" name="NSW">   200</i>
  <i type="int" name="ISIF">     0</i>
  <i type="int" name="ISYM">     0</i>
  <i name="ENMAX">    274.00000000</i>
  <i name="POTIM">      0.10000000</i>
  <i type="string" name="LREAL">Auto</i>
  <i type="logical" name="LPLANE"> T  </i>
  <i type="logical" name="LWAVE"> F  </i>
  <i type="logical" name="LCHARG"> F  </i>
  <v type="int" name="KPOINT_BSE">    -1     0     0     0</v>
 </incar>
 <kpoints>
  <generation param="Monkhorst-Pack">
   <v type="int" name="divisions">       1        1        1 </v>
   <v name="usershift">      0.00000000       0.00000000       0.00000000 </v>
   <v name="genvec1">      1.00000000       0.00000000       0.00000000 </v>
   <v name="genvec2">      0.00000000       1.00000000       0.00000000 </v>
   <v name="genvec3">      0.00000000       0.00000000       1.00000000 </v>
   <v name="shift">      0.00000000       0.00000000       0.00000000 </v>
  </generation>
  <varray name="kpointlist" >
   <v>       0.00000000       0.00000000       0.00000000 </v>
  </varray>
  <varray name="weights" >
   <v>       1.00000000 </v>
  </varray>
 </kpoints>
 <parameters>
  <separator name="general" >
   <i type="string" name="SYSTEM">Pt cube particle</i>
   <i type="logical" name="LCOMPAT"> F  </i>
  </separator>
  <separator name="electronic" >
   <i type="string" name="PREC">normal</i>
   <i name="ENMAX">    274.00000000</i>
   <i name="ENAUG">    358.96600000</i>
   <i name="EDIFF">      0.00010000</i>
   <i type="int" name="IALGO">    48</i>
   <i type="int" name="IWAVPR">    11</i>
   <i type="int" name="NBANDS">    10</i>
   <i name="NELECT">     10.00000000</i>
   <i type="int" name="TURBO">     0</i>
   <i type="int" name="IRESTART">     0</i>
   <i type="int" name="NREBOOT">     0</i>
   <i type="int" name="NMIN">     0</i>
   <i name="EREF">      0.00000000</i>
   <separator name="electronic smearing" >
    <i type="int" name="ISMEAR">     1</i>
    <i name="SIGMA">      0.20000000</i>
    <i name="KSPACING">      0.50000000</i>
    <i type="logical" name="KGAMMA"> T  </i>
   </separator>
   <separator name="electronic projectors" >
    <i type="logical" name="LREAL"> T  </i>
    <v name="ROPT">     -0.00050000</v>
    <i type="int" name="LMAXPAW">  -100</i>
    <i type="int" name="LMAXMIX">     2</i>
    <i type="logical" name="NLSPLINE"> F  </i>
   </separator>
   <separator name="electronic startup" >
    <i type="int" name="ISTART">     0</i>
    <i type="int" name="ICHARG">     2</i>
    <i type="int" name="INIWAV">     1</i>
   </separator>
   <separator name="electronic spin" >
    <i type="int" name="ISPIN">     1</i>
    <i type="logical" name="LNONCOLLINEAR"> F  </i>
    <v name="MAGMOM">      1.00000000</v>
    <i name="NUPDOWN">     -1.00000000</i>
    <i type="logical" name="LSORBIT"> F  </i>
    <v name="SAXIS">      0.00000000      0.00000000      1.00000000</v>
    <i type="logical" name="LSPIRAL"> F  </i>
    <v name="QSPIRAL">      0.00000000      0.00000000      0.00000000</v>
    <i type="logical" name="LZEROZ"> F  </i>
   </separator>
   <separator name="electronic exchange-correlation" >
    <i type="logical" name="LASPH"> F  </i>
    <i type="logical" name="LMETAGGA"> F  </i>
   </separator>
   <separator name="electronic convergence" >
    <i type="int" name="NELM">    60</i>
    <i type="int" name="NELMDL">   -12</i>
    <i type="int" name="NELMIN">     2</i>
    <i name="ENINI">    274.00000000</i>
    <separator name="electronic convergence detail" >
     <i type="logical" name="LDIAG"> T  </i>
     <i type="logical" name="LSUBROT"> F  </i>
     <i name="WEIMIN">      0.00100000</i>
     <i name="EBREAK">      0.00000250</i>
     <i name="DEPER">      0.30000000</i>
     <i type="int" name="NRMM">     4</i>
     <i name="TIME">      0.40000000</i>
    </separator>
   </separator>
   <separator name="electronic mixer" >
    <i name="AMIX">      0.40000000</i>
    <i name="BMIX">      1.00000000</i>
    <i name="AMIN">      0.10000000</i>
    <i name="AMIX_MAG">      1.60000000</i>
    <i name="BMIX_MAG">      1.00000000</i>
    <separator name="electronic mixer details" >
     <i type="int" name="IMIX">     4</i>
     <i type="logical" name="MIXFIRST"> F  </i>
     <i type="int" name="MAXMIX">   -45</i>
     <i name="WC">    100.00000000</i>
     <i type="int" name="INIMIX">     1</i>
     <i type="int" name="MIXPRE">     1</i>
     <i type="int" name="MREMOVE">     5</i>
    </separator>
   </separator>
   <separator name="electronic dipolcorrection" >
    <i type="logical" name="LDIPOL"> F  </i>
    <i type="logical" name="LMONO"> F  </i>
    <i type="int" name="IDIPOL">     0</i>
    <i name="EPSILON">      1.00000000</i>
    <v name="DIPOL">   -100.00000000   -100.00000000   -100.00000000</v>
    <i name="EFIELD">      0.00000000</i>
   </separator>
  </separator>
  <separator name="grids" >
   <i type="int" name="NGX">    24</i>
   <i type="int" name="NGY">    24</i>
   <i type="int" name="NGZ">    24</i>
   <i type="int" name="NGXF">    48</i>
   <i type="int" name="NGYF">    48</i>
   <i type="int" name="NGZF">    48</i>
   <i type="logical" name="ADDGRID"> F  </i>
  </separator>
  <separator name="ionic" >
   <i type="int" name="NSW">   200</i>
   <i type="int" name="IBRION">     2</i>
   <i type="int" name="ISIF">     0</i>
   <i name="PSTRESS">      0.00000000</i>
   <i name="EDIFFG">     -0.00500000</i>
   <i type="int" name="NFREE">     1</i>
   <i name="POTIM">      0.10000000</i>
   <i name="SMASS">     -3.00000000</i>
   <i name="SCALEE">      1.00000000</i>
  </separator>
  <separator name="ionic md" >
   <i name="TEBEG">      0.00010000</i>
   <i name="TEEND">      0.00010000</i>
   <i type="int" name="NBLOCK">     1</i>
   <i type="int" name="KBLOCK">   200</i>
   <i type="int" name="NPACO">   256</i>
   <i name="APACO">     16.00000000</i>
  </separator>
  <separator name="symmetry" >
   <i type="int" name="ISYM">     0</i>
   <i name="SYMPREC">      0.00001000</i>
  </separator>
  <separator name="dos" >
   <i type="logical" name="LORBIT"> F  </i>
   <v name="RWIGS">     -1.00000000</v>
   <i type="int" name="NEDOS">   301</i>
   <i name="EMIN">     10.00000000</i>
   <i name="EMAX">    -10.00000000</i>
   <i name="EFERMI">      0.00000000</i>
  </separator>
  <separator name="writing" >
   <i type="int" name="NWRITE">     2</i>
   <i type="logical" name="LWAVE"> F  </i>
   <i type="logical" name="LCHARG"> F  </i>
   <i type="logical" name="LPARD"> F  </i>
   <i type="logical" name="LVTOT"> F  </i>
   <i type="logical" name="LVHAR"> F  </i>
   <i type="logical" name="LELF"> F  </i>
   <i type="logical" name="LOPTICS"> F  </i>
   <v name="STM">      0.00000000      0.00000000      0.00000000      0.00000000      0.00000000      0.00000000      0.00000000</v>
  </separator>
  <separator name="performance" >
   <i type="int" name="NPAR">     2</i>
   <i type="int" name="NSIM">     4</i>
   <i type="int" name="NBLK">    -1</i>
   <i type="logical" name="LPLANE"> T  </i>
   <i type="logical" name="LSCALAPACK"> T  </i>
   <i type="logical" name="LSCAAWARE"> F  </i>
   <i type="logical" name="LSCALU"> F  </i>
   <i type="logical" name="LASYNC"> F  </i>
   <i type="logical" name="LORBITALREAL"> F  </i>
  </separator>
  <separator name="miscellaneous" >
   <i type="int" name="IDIOT">     3</i>
   <i type="logical" name="LMUSIC"> F  </i>
   <v name="POMASS">    195.08000000</v>
   <v name="DARWINR">      0.00000000</v>
   <v name="DARWINV">      1.00000000</v>
   <i type="logical" name="LCORR"> T  </i>
  </separator>
  <i type="logical" name="GGA_COMPAT"> T  </i>
  <i type="logical" name="LBERRY"> F  </i>
  <i type="int" name="ICORELEVEL">     0</i>
  <i type="logical" name="LDAU"> F  </i>
  <i type="int" name="I_CONSTRAINED_M">     0</i>
  <separator name="electronic exchange-correlation" >
   <i type="string" name="GGA">--</i>
   <i type="int" name="VOSKOWN">     0</i>
   <i type="logical" name="LHFCALC"> F  </i>
   <i type="string" name="PRECFOCK"></i>
   <i type="logical" name="LSYMGRAD"> F  </i>
   <i type="logical" name="LHFONE"> F  </i>
   <i type="logical" name="LRHFCALC"> F  </i>
   <i type="logical" name="LTHOMAS"> F  </i>
   <i type="logical" name="LMODELHF"> F  </i>
   <i name="ENCUT4O">     -1.00000000</i>
   <i type="int" name="EXXOEP">     0</i>
   <i type="int" name="FOURORBIT">     0</i>
   <i name="AEXX">      0.00000000</i>
   <i name="HFALPHA">      0.00000000</i>
   <i name="MCALPHA">      0.00000000</i>
   <i name="ALDAX">      1.00000000</i>
   <i name="AGGAX">      1.00000000</i>
   <i name="ALDAC">      1.00000000</i>
   <i name="AGGAC">      1.00000000</i>
   <i type="int" name="NKREDX">     1</i>
   <i type="int" name="NKREDY">     1</i>
   <i type="int" name="NKREDZ">     1</i>
   <i type="logical" name="SHIFTRED"> F  </i>
   <i type="logical" name="ODDONLY"> F  </i>
   <i type="logical" name="EVENONLY"> F  </i>
   <i type="int" name="LMAXFOCK">     0</i>
   <i type="int" name="NMAXFOCKAE">     0</i>
   <i type="logical" name="LFOCKAEDFT"> F  </i>
   <i name="HFSCREEN">      0.00000000</i>
   <i name="HFSCREENC">      0.00000000</i>
   <i type="int" name="NBANDSGWLOW">     0</i>
  </separator>
  <separator name="vdW DFT" >
   <i type="logical" name="LUSE_VDW"> F  </i>
   <i name="Zab_VDW">     -0.84910000</i>
   <i name="PARAM1">      0.12340000</i>
   <i name="PARAM2">      1.00000000</i>
   <i name="PARAM3">      0.00000000</i>
  </separator>
  <separator name="model GW" >
   <i type="int" name="MODEL_GW">     0</i>
   <i name="MODEL_EPS0">    129.60000000</i>
   <i name="MODEL_ALPHA">      1.00000000</i>
  </separator>
  <separator name="linear response parameters" >
   <i type="logical" name="LEPSILON"> F  </i>
   <i type="logical" name="LRPA"> F  </i>
   <i type="logical" name="LNABLA"> F  </i>
   <i type="logical" name="LVEL"> F  </i>
   <i type="int" name="KINTER">     0</i>
   <i name="CSHIFT">      0.10000000</i>
   <i name="OMEGAMAX">     -1.00000000</i>
   <i name="DEG_THRESHOLD">      0.00200000</i>
  </separator>
  <separator name="orbital magnetization" >
   <i type="logical" name="NUCIND"> F  </i>
   <v name="MAGPOS">      0.00000000      0.00000000      0.00000000</v>
   <i type="logical" name="LNICSALL"> T  </i>
   <i type="logical" name="ORBITALMAG"> F  </i>
   <i type="logical" name="LMAGBLOCH"> F  </i>
   <i type="logical" name="LCHIMAG"> F  </i>
   <i type="logical" name="LGAUGE"> T  </i>
   <i type="int" name="MAGATOM">     0</i>
   <v name="MAGDIPOL">      0.00000000      0.00000000      0.00000000</v>
   <v name="AVECCONST">      0.00000000      0.00000000      0.00000000</v>
  </separator>
  <separator name="response functions" >
   <i type="logical" name="LADDER"> F  </i>
   <i type="logical" name="LFXC"> F  </i>
   <i type="logical" name="LHARTREE"> T  </i>
   <i type="int" name="IBSE">     0</i>
   <v type="int" name="KPOINT">    -1     0     0     0</v>
   <i type="logical" name="LTCTE"> F  </i>
   <i type="logical" name="LTETE"> F  </i>
   <i type="logical" name="LTRIPLET"> F  </i>
   <i type="logical" name="LFXCEPS"> F  </i>
   <i type="logical" name="LFXHEG"> F  </i>
   <i type="int" name="NATURALO">     0</i>
   <i type="logical" name="L2ORDER"> F  </i>
   <i type="logical" name="LUSEW"> F  </i>
   <i name="ENCUTGW">     -2.00000000</i>
   <i name="ENCUTGWSOFT">     -2.00000000</i>
   <i name="ENCUTLF">     -1.00000000</i>
   <i type="int" name="LMAXMP2">    -1</i>
   <i name="SCISSOR">      0.00000000</i>
   <i type="int" name="NOMEGA">     0</i>
   <i type="int" name="NOMEGAR">     0</i>
   <i type="int" name="NBANDSGW">    -1</i>
   <i type="int" name="NBANDSO">    -1</i>
   <i type="int" name="NBANDSV">    -1</i>
   <i type="int" name="NELM">     1</i>
   <i type="int" name="NELMHF">     1</i>
   <i type="int" name="DIM">     3</i>
   <i type="int" name="ANTIRES">     0</i>
   <i name="OMEGAMAX">    -30.00000000</i>
   <i name="OMEGAMIN">    -30.00000000</i>
   <i name="OMEGATL">   -200.00000000</i>
   <i type="int" name="OMEGAGRID">     0</i>
   <i name="CSHIFT">     -0.10000000</i>
   <i type="logical" name="SELFENERGY"> F  </i>
   <i type="logical" name="LSPECTRAL"> F  </i>
   <i type="logical" name="LSPECTRALGW"> F  </i>
   <i type="logical" name="LSINGLES"> F  </i>
   <i type="logical" name="LFERMIGW"> F  </i>
   <i type="logical" name="ODDONLYGW"> F  </i>
   <i type="logical" name="EVENONLYGW"> F  </i>
   <i type="int" name="NKREDLFX">     1</i>
   <i type="int" name="NKREDLFY">     1</i>
   <i type="int" name="NKREDLFZ">     1</i>
   <i type="int" name="MAXMEM">  1800</i>
   <i type="int" name="TELESCOPE">     0</i>
   <i type="int" name="TAUPAR">     1</i>
   <i type="int" name="OMEGAPAR">    -1</i>
   <i name="LAMBDA">      1.00000000</i>
  </separator>
  <separator name="External order field" >
   <i name="OFIELD_KAPPA">      0.00000000</i>
   <v name="OFIELD_K">      0.00000000      0.00000000      0.00000000</v>
   <i name="OFIELD_Q6_NEAR">      0.00000000</i>
   <i name="OFIELD_Q6_FAR">      0.00000000</i>
   <i name="OFIELD_A">      0.00000000</i>
  </separator>
  <separator name="solvation model" >
   <i type="logical" name="LSOL"> F  </i>
  </separator>
 </parameters>
 <atominfo>
  <atoms>       1 </atoms>
  <types>       1 </types>
  <array name="atoms" >
   <dimension dim="1">ion</dimension>
   <field type="string">element</field>
   <field type="int">atomtype</field>
   <set>
    <rc><c>Pt</c><c>   1</c></rc>
   </set>
  </array>
  <array name="atomtypes" >
   <dimension dim="1">type</dimension>
   <field type="int">atomspertype</field>
   <field type="string">element</field>
   <field>mass</field>
   <field>valence</field>
   <field type="string">pseudopotential</field>
   <set>
    <rc><c>   1</c><c>Pt</c><c>    195.08000000</c><c>     10.00000000</c><c>  PAW Pt                                </c></rc>
   </set>
  </array>
 </atominfo>
 <structure name="initialpos" >
  <crystal>
   <varray name="basis" >
    <v>       6.00000000       0.00000000       0.00000000 </v>
    <v>       0.00000000       6.00000000       0.00000000 </v>
    <v>       0.00000000       0.00000000       6.00000000 </v>
   </varray>
   <i name="volume">    216.00000000 </i>
   <varray name="rec_basis" >
    <v>       0.16666667       0.00000000       0.00000000 </v>
    <v>       0.00000000       0.16666667       0.00000000 </v>
    <v>       0.00000000       0.00000000       0.16666667 </v>
   </varray>
  </crystal>
  <varray name="positions" >
   <v>       0.50000000       0.50000000       0.50000000 </v>
  </varray>
  <varray name="selective"  type="logical" >
   <v type="logical" >  T  T  T </v>
  </varray>
  <nose>
   <v>      -3.00000000       0.00000000       0.00010000       0.00010000 </v>
  </nose>
 </structure>
 <calculation>
  <scstep>
   <time name="diag">    0.00    0.00</time>
   <time name="diis">    0.00    0.00</time>
   <time name="orth">    0.00    0.00</time>
   <time name="total">    0.03    0.04</time>
   <energy>
    <i name="alphaZ">      6.71504861 </i>
    <i name="ewald">   -340.47066676 </i>
    <i name="hartreedc">   -373.01448392 </i>
    <i name="XCdc">      0.65519630 </i>
    <i name="pawpsdc">    573.45561788 </i>
    <i name="pawaedc">   -545.05012066 </i>
    <i name="eentropy">      0.04933474 </i>
    <i name="bandstr">     22.40405615 </i>
    <i name="atom">    729.99236779 </i>
    <i name="e_fr_energy">     74.73635014 </i>
    <i name="e_wo_entrp">     74.68701540 </i>
    <i name="e_0_energy">     74.71990523 </i>
   </energy>
  </scstep>
  <scstep>
   <time name="diag">    0.00    0.00</time>
   <time name="diis">    0.00    0.00</time>
   <time name="orth">    0.00    0.00</time>
   <time name="total">    0.01    0.01</time>
   <energy>
    <i name="e_fr_energy">     48.86164522 </i>
    <i name="e_wo_entrp">     48.85004941 </i>
    <i name="e_0_energy">     48.85777995 </i>
   </energy>
  </scstep>
  <scstep>
   <time name="diag">    0.00    0.00</time>
   <time name="diis">    0.00    0.00</time>
   <time name="orth">    0.00    0.00</time>
   <time name="total">    0.00    0.01</time>
   <energy>
    <i name="e_fr_energy">     22.28067262 </i>
    <i name="e_wo_entrp">     22.26907635 </i>
    <i name="e_0_energy">     22.27680720 </i>
   </energy>
  </scstep>
  <scstep>
   <time name="diag">    0.00    0.00</time>
   <time name="diis">    0.00    0.00</time>
   <time name="orth">    0.00    0.00</time>
   <time name="total">    0.00    0.01</time>
   <energy>
    <i name="e_fr_energy">      7.25732410 </i>
    <i name="e_wo_entrp">      7.24572829 </i>
    <i name="e_0_energy">      7.25345883 </i>
   </energy>
  </scstep>
  <scstep>
   <time name="diag">    0.00    0.00</time>
   <time name="diis">    0.00    0.00</time>
   <time name="orth">    0.00    0.00</time>
   <time name="total">    0.00    0.01</time>
   <energy>
    <i name="e_fr_energy">      1.00141856 </i>
    <i name="e_wo_entrp">      0.96603945 </i>
    <i name="e_0_energy">      0.98962552 </i>
   </energy>
  </scstep>
  <scstep>
   <time name="diag">    0.00    0.00</time>
   <time name="diis">    0.00    0.00</time>
   <time name="orth">    0.00    0.00</time>
   <time name="total">    0.00    0.01</time>
   <energy>
    <i name="e_fr_energy">      0.33849751 </i>
    <i name="e_wo_entrp">      0.29568858 </i>
    <i name="e_0_energy">      0.32422787 </i>
   </energy>
  </scstep>
  <scstep>
   <time name="diag">    0.00    0.00</time>
   <time name="diis">    0.00    0.00</time>
   <time name="orth">    0.00    0.00</time>
   <time name="total">    0.00    0.01</time>
   <energy>
    <i name="e_fr_energy">      0.12970984 </i>
    <i name="e_wo_entrp">      0.13501119 </i>
    <i name="e_0_energy">      0.13147696 </i>
   </energy>
  </scstep>
  <scstep>
   <time name="diag">    0.00    0.00</time>
   <time name="diis">    0.00    0.00</time>
   <time name="orth">    0.00    0.00</time>
   <time name="total">    0.00    0.01</time>
   <energy>
    <i name="e_fr_energy">     -0.17791039 </i>
    <i name="e_wo_entrp">     -0.18290198 </i>
    <i name="e_0_energy">     -0.17957425 </i>
   </energy>
  </scstep>
  <scstep>
   <time name="diag">    0.00    0.00</time>
   <time name="diis">    0.01    0.01</time>
   <time name="orth">    0.00    0.00</time>
   <time name="total">    0.01    0.01</time>
   <energy>
    <i name="e_fr_energy">     -0.49240721 </i>
    <i name="e_wo_entrp">     -0.52725160 </i>
    <i name="e_0_energy">     -0.50402200 </i>
   </energy>
  </scstep>
  <scstep>
   <time name="diag">    0.00    0.00</time>
   <time name="diis">    0.00    0.00</time>
   <time name="orth">    0.00    0.00</time>
   <time name="total">    0.01    0.01</time>
   <energy>
    <i name="e_fr_energy">     -0.50409329 </i>
    <i name="e_wo_entrp">     -0.54063324 </i>
    <i name="e_0_energy">     -0.51627327 </i>
   </energy>
  </scstep>
  <scstep>
   <time name="diag">    0.00    0.00</time>
   <time name="diis">    0.00    0.00</time>
   <time name="orth">    0.00    0.00</time>
   <time name="total">    0.00    0.01</time>
   <energy>
    <i name="e_fr_energy">     -0.50434658 </i>
    <i name="e_wo_entrp">     -0.54090815 </i>
    <i name="e_0_energy">     -0.51653377 </i>
   </energy>
  </scstep>
  <scstep>
   <time name="diag">    0.00    0.00</time>
   <time name="diis">    0.00    0.00</time>
   <time name="orth">    0.00    0.00</time>
   <time name="total">    0.01    0.01</time>
   <energy>
    <i name="e_fr_energy">     -0.50437963 </i>
    <i name="e_wo_entrp">     -0.54094414 </i>
    <i name="e_0_energy">     -0.51656780 </i>
   </energy>
  </scstep>
  <scstep>
   <time name="diag">    0.00    0.00</time>
   <time name="diis">    0.00    0.00</time>
   <time name="orth">    0.00    0.00</time>
   <time name="total">    0.03    0.04</time>
   <energy>
    <i name="e_fr_energy">     -1.11235613 </i>
    <i name="e_wo_entrp">     -0.94746371 </i>
    <i name="e_0_energy">     -1.05739199 </i>
   </energy>
  </scstep>
  <scstep>
   <time name="diag">    0.00    0.00</time>
   <time name="diis">    0.00    0.00</time>
   <time name="orth">    0.00    0.00</time>
   <time name="total">    0.03    0.04</time>
   <energy>
    <i name="e_fr_energy">     -0.46681821 </i>
    <i name="e_wo_entrp">     -0.30465651 </i>
    <i name="e_0_energy">     -0.41276431 </i>
   </energy>
  </scstep>
  <scstep>
   <time name="diag">    0.00    0.00</time>
   <time name="diis">    0.00    0.00</time>
   <time name="orth">    0.00    0.00</time>
   <time name="total">    0.03    0.03</time>
   <energy>
    <i name="e_fr_energy">     -0.43825771 </i>
    <i name="e_wo_entrp">     -0.35321962 </i>
    <i name="e_0_energy">     -0.40991168 </i>
   </energy>
  </scstep>
  <scstep>
   <time name="diag">    0.00    0.00</time>
   <time name="diis">    0.00    0.00</time>
   <time name="orth">    0.00    0.00</time>
   <time name="total">    0.03    0.03</time>
   <energy>
    <i name="e_fr_energy">     -0.49408788 </i>
    <i name="e_wo_entrp">     -0.52162859 </i>
    <i name="e_0_energy">     -0.50326811 </i>
   </energy>
  </scstep>
  <scstep>
   <time name="diag">    0.00    0.00</time>
   <time name="diis">    0.00    0.00</time>
   <time name="orth">    0.00    0.00</time>
   <time name="total">    0.03    0.03</time>
   <energy>
    <i name="e_fr_energy">     -0.46599725 </i>
    <i name="e_wo_entrp">     -0.30548756 </i>
    <i name="e_0_energy">     -0.41249402 </i>
   </energy>
  </scstep>
  <scstep>
   <time name="diag">    0.00    0.00</time>
   <time name="diis">    0.00    0.00</time>
   <time name="orth">    0.00    0.00</time>
   <time name="total">    0.03    0.03</time>
   <energy>
    <i name="e_fr_energy">     -0.43831384 </i>
    <i name="e_wo_entrp">     -0.32225869 </i>
    <i name="e_0_energy">     -0.39962879 </i>
   </energy>
  </scstep>
  <scstep>
   <time name="diag">    0.00    0.00</time>
   <time name="diis">    0.00    0.00</time>
   <time name="orth">    0.00    0.00</time>
   <time name="total">    0.03    0.04</time>
   <energy>
    <i name="e_fr_energy">     -0.43757239 </i>
    <i name="e_wo_entrp">     -0.35283763 </i>
    <i name="e_0_energy">     -0.40932747 </i>
   </energy>
  </scstep>
  <scstep>
   <time name="diag">    0.00    0.00</time>
   <time name="diis">    0.00    0.00</time>
   <time name="orth">    0.00    0.00</time>
   <time name="total">    0.03    0.03</time>
   <energy>
    <i name="e_fr_energy">     -0.43498687 </i>
    <i name="e_wo_entrp">     -0.33227184 </i>
    <i name="e_0_energy">     -0.40074853 </i>
   </energy>
  </scstep>
  <scstep>
   <time name="diag">    0.00    0.00</time>
   <time name="diis">    0.00    0.00</time>
   <time name="orth">    0.00    0.00</time>
   <time name="total">    0.03    0.03</time>
   <energy>
    <i name="e_fr_energy">     -0.43473511 </i>
    <i name="e_wo_entrp">     -0.33095522 </i>
    <i name="e_0_energy">     -0.40014181 </i>
   </energy>
  </scstep>
  <scstep>
   <time name="diag">    0.00    0.00</time>
   <time name="diis">    0.00    0.00</time>
   <time name="orth">    0.00    0.00</time>
   <time name="total">    0.03    0.03</time>
   <energy>
    <i name="e_fr_energy">     -0.43444131 </i>
    <i name="e_wo_entrp">     -0.33054603 </i>
    <i name="e_0_energy">     -0.39980955 </i>
   </energy>
  </scstep>
  <scstep>
   <time name="diag">    0.00    0.00</time>
   <time name="diis">    0.00    0.00</time>
   <time name="orth">    0.00    0.00</time>
   <time name="total">    0.03    0.03</time>
   <energy>
    <i name="alphaZ">      6.71504861 </i>
    <i name="ewald">   -340.47066676 </i>
    <i name="hartreedc">   -375.47159662 </i>
    <i name="XCdc">      0.70355271 </i>
    <i name="pawpsdc">    576.33273543 </i>
    <i name="pawaedc">   -547.16747573 </i>
    <i name="eentropy">     -0.10076203 </i>
    <i name="bandstr">    -50.96774248 </i>
    <i name="atom">    729.99236779 </i>
    <i name="e_fr_energy">     -0.43453907 </i>
    <i name="e_wo_entrp">     -0.33377704 </i>
    <i name="e_0_energy">     -0.40095173 </i>
   </energy>
  </scstep>
  <structure>
   <crystal>
    <varray name="basis" >
     <v>       6.00000000       0.00000000       0.00000000 </v>
     <v>       0.00000000       6.00000000       0.00000000 </v>
     <v>       0.00000000       0.00000000       6.00000000 </v>
    </varray>
    <i name="volume">    216.00000000 </i>
    <varray name="rec_basis" >
     <v>       0.16666667       0.00000000       0.00000000 </v>
     <v>       0.00000000       0.16666667       0.00000000 </v>
     <v>       0.00000000       0.00000000       0.16666667 </v>
    </varray>
   </crystal>
   <varray name="positions" >
    <v>       0.50000000       0.50000000       0.50000000 </v>
   </varray>
  </structure>
  <varray name="forces" >
   <v>       0.00000114      -0.00000150      -0.00000148 </v>
  </varray>
  <energy>
   <i name="e_fr_energy">     -0.43453907 </i>
   <i name="e_wo_entrp">     -0.40095173 </i>
   <i name="e_0_energy">     -0.10076203 </i>
  </energy>
  <time name="totalsc">    0.53    0.55</time>
  <eigenvalues>
   <array>
    <dimension dim="1">band</dimension>
    <dimension dim="2">kpoint</dimension>
    <dimension dim="3">spin</dimension>
    <field>eigene</field>
    <field>occ</field>
    <set>
     <set comment="spin 1">
      <set comment="kpoint 1">
       <r>   -5.1267    0.9634 </r>
       <r>   -5.1265    0.9631 </r>
       <r>   -5.0954    0.8982 </r>
       <r>   -5.0953    0.8980 </r>
       <r>   -5.0952    0.8978 </r>
       <r>   -4.9559    0.3796 </r>
       <r>    0.7742    0.0000 </r>
       <r>    0.8738    0.0000 </r>
       <r>    0.8738    0.0000 </r>
       <r>    0.8739    0.0000 </r>
      </set>
     </set>
    </set>
   </array>
  </eigenvalues>
  <separator name="orbital magnetization" >
   <v name="MAGDIPOLOUT">      0.00000000      0.00000000      0.00000000</v>
  </separator>
  <dos>
   <i name="efermi">     -4.98463939 </i>
   <total>
    <array>
     <dimension dim="1">gridpoints</dimension>
     <dimension dim="2">spin</dimension>
     <field>energy</field>
     <field>total</field>
     <field>integrated</field>
     <set>
      <set comment="spin 1">
       <r>    -7.1267     0.0000     0.0000 </r>
       <r>    -7.0933     0.0000     0.0000 </r>
       <r>    -7.0600     0.0000     0.0000 </r>
       <r>    -7.0267     0.0000     0.0000 </r>
       <r>    -6.9933     0.0000     0.0000 </r>
       <r>    -6.9600     0.0000     0.0000 </r>
       <r>    -6.9267     0.0000     0.0000 </r>
       <r>    -6.8933     0.0000     0.0000 </r>
       <r>    -6.8600     0.0000     0.0000 </r>
       <r>    -6.8267     0.0000     0.0000 </r>
       <r>    -6.7933     0.0000     0.0000 </r>
       <r>    -6.7600     0.0000     0.0000 </r>
       <r>    -6.7266     0.0000     0.0000 </r>
       <r>    -6.6933     0.0000     0.0000 </r>
       <r>    -6.6600     0.0000     0.0000 </r>
       <r>    -6.6266     0.0000     0.0000 </r>
       <r>    -6.5933     0.0000     0.0000 </r>
       <r>    -6.5600     0.0000     0.0000 </r>
       <r>    -6.5266     0.0000     0.0000 </r>
       <r>    -6.4933     0.0000     0.0000 </r>
       <r>    -6.4600     0.0000     0.0000 </r>
       <r>    -6.4266     0.0000     0.0000 </r>
       <r>    -6.3933     0.0000     0.0000 </r>
       <r>    -6.3600     0.0000     0.0000 </r>
       <r>    -6.3266     0.0000     0.0000 </r>
       <r>    -6.2933     0.0000     0.0000 </r>
       <r>    -6.2600     0.0000     0.0000 </r>
       <r>    -6.2266     0.0000     0.0000 </r>
       <r>    -6.1933     0.0000     0.0000 </r>
       <r>    -6.1599     0.0000     0.0000 </r>
       <r>    -6.1266     0.0000     0.0000 </r>
       <r>    -6.0933     0.0000     0.0000 </r>
       <r>    -6.0599     0.0000     0.0000 </r>
       <r>    -6.0266     0.0000     0.0000 </r>
       <r>    -5.9933     0.0000     0.0000 </r>
       <r>    -5.9599     0.0000     0.0000 </r>
       <r>    -5.9266     0.0000     0.0000 </r>
       <r>    -5.8933    -0.0001     0.0000 </r>
       <r>    -5.8599    -0.0002     0.0000 </r>
       <r>    -5.8266    -0.0005     0.0000 </r>
       <r>    -5.7933    -0.0016    -0.0001 </r>
       <r>    -5.7599    -0.0044    -0.0002 </r>
       <r>    -5.7266    -0.0113    -0.0006 </r>
       <r>    -5.6933    -0.0274    -0.0015 </r>
       <r>    -5.6599    -0.0623    -0.0036 </r>
       <r>    -5.6266    -0.1326    -0.0080 </r>
       <r>    -5.5933    -0.2629    -0.0168 </r>
       <r>    -5.5599    -0.4845    -0.0329 </r>
       <r>    -5.5266    -0.8248    -0.0604 </r>
       <r>    -5.4932    -1.2860    -0.1033 </r>
       <r>    -5.4599    -1.8088    -0.1636 </r>
       <r>    -5.4266    -2.2287    -0.2379 </r>
       <r>    -5.3932    -2.2417    -0.3126 </r>
       <r>    -5.3599    -1.4071    -0.3595 </r>
       <r>    -5.3266     0.7837    -0.3334 </r>
       <r>    -5.2932     4.7629    -0.1746 </r>
       <r>    -5.2599    10.6914     0.1818 </r>
       <r>    -5.2266    18.2813     0.7912 </r>
       <r>    -5.1932    26.7245     1.6821 </r>
       <r>    -5.1599    34.7943     2.8419 </r>
       <r>    -5.1266    41.1234     4.2128 </r>
       <r>    -5.0932    44.5739     5.6987 </r>
       <r>    -5.0599    44.5644     7.1842 </r>
       <r>    -5.0266    41.2232     8.5584 </r>
       <r>    -4.9932    35.3146     9.7356 </r>
       <r>    -4.9599    27.9778    10.6683 </r>
       <r>    -4.9265    20.3970    11.3482 </r>
       <r>    -4.8932    13.5253    11.7991 </r>
       <r>    -4.8599     7.9405    12.0638 </r>
       <r>    -4.8265     3.8418    12.1918 </r>
       <r>    -4.7932     1.1397    12.2298 </r>
       <r>    -4.7599    -0.4200    12.2158 </r>
       <r>    -4.7265    -1.1472    12.1776 </r>
       <r>    -4.6932    -1.3344    12.1331 </r>
       <r>    -4.6599    -1.2193    12.0925 </r>
       <r>    -4.6265    -0.9727    12.0600 </r>
       <r>    -4.5932    -0.7030    12.0366 </r>
       <r>    -4.5599    -0.4680    12.0210 </r>
       <r>    -4.5265    -0.2894    12.0114 </r>
       <r>    -4.4932    -0.1670    12.0058 </r>
       <r>    -4.4599    -0.0902    12.0028 </r>
       <r>    -4.4265    -0.0456    12.0013 </r>
       <r>    -4.3932    -0.0217    12.0005 </r>
       <r>    -4.3598    -0.0097    12.0002 </r>
       <r>    -4.3265    -0.0041    12.0001 </r>
       <r>    -4.2932    -0.0016    12.0000 </r>
       <r>    -4.2598    -0.0006    12.0000 </r>
       <r>    -4.2265    -0.0002    12.0000 </r>
       <r>    -4.1932    -0.0001    12.0000 </r>
       <r>    -4.1598     0.0000    12.0000 </r>
       <r>    -4.1265     0.0000    12.0000 </r>
       <r>    -4.0932     0.0000    12.0000 </r>
       <r>    -4.0598     0.0000    12.0000 </r>
       <r>    -4.0265     0.0000    12.0000 </r>
       <r>    -3.9932     0.0000    12.0000 </r>
       <r>    -3.9598     0.0000    12.0000 </r>
       <r>    -3.9265     0.0000    12.0000 </r>
       <r>    -3.8932     0.0000    12.0000 </r>
       <r>    -3.8598     0.0000    12.0000 </r>
       <r>    -3.8265     0.0000    12.0000 </r>
       <r>    -3.7932     0.0000    12.0000 </r>
       <r>    -3.7598     0.0000    12.0000 </r>
       <r>    -3.7265     0.0000    12.0000 </r>
       <r>    -3.6931     0.0000    12.0000 </r>
       <r>    -3.6598     0.0000    12.0000 </r>
       <r>    -3.6265     0.0000    12.0000 </r>
       <r>    -3.5931     0.0000    12.0000 </r>
       <r>    -3.5598     0.0000    12.0000 </r>
       <r>    -3.5265     0.0000    12.0000 </r>
       <r>    -3.4931     0.0000    12.0000 </r>
       <r>    -3.4598     0.0000    12.0000 </r>
       <r>    -3.4265     0.0000    12.0000 </r>
       <r>    -3.3931     0.0000    12.0000 </r>
       <r>    -3.3598     0.0000    12.0000 </r>
       <r>    -3.3265     0.0000    12.0000 </r>
       <r>    -3.2931     0.0000    12.0000 </r>
       <r>    -3.2598     0.0000    12.0000 </r>
       <r>    -3.2265     0.0000    12.0000 </r>
       <r>    -3.1931     0.0000    12.0000 </r>
       <r>    -3.1598     0.0000    12.0000 </r>
       <r>    -3.1264     0.0000    12.0000 </r>
       <r>    -3.0931     0.0000    12.0000 </r>
       <r>    -3.0598     0.0000    12.0000 </r>
       <r>    -3.0264     0.0000    12.0000 </r>
       <r>    -2.9931     0.0000    12.0000 </r>
       <r>    -2.9598     0.0000    12.0000 </r>
       <r>    -2.9264     0.0000    12.0000 </r>
       <r>    -2.8931     0.0000    12.0000 </r>
       <r>    -2.8598     0.0000    12.0000 </r>
       <r>    -2.8264     0.0000    12.0000 </r>
       <r>    -2.7931     0.0000    12.0000 </r>
       <r>    -2.7598     0.0000    12.0000 </r>
       <r>    -2.7264     0.0000    12.0000 </r>
       <r>    -2.6931     0.0000    12.0000 </r>
       <r>    -2.6598     0.0000    12.0000 </r>
       <r>    -2.6264     0.0000    12.0000 </r>
       <r>    -2.5931     0.0000    12.0000 </r>
       <r>    -2.5598     0.0000    12.0000 </r>
       <r>    -2.5264     0.0000    12.0000 </r>
       <r>    -2.4931     0.0000    12.0000 </r>
       <r>    -2.4597     0.0000    12.0000 </r>
       <r>    -2.4264     0.0000    12.0000 </r>
       <r>    -2.3931     0.0000    12.0000 </r>
       <r>    -2.3597     0.0000    12.0000 </r>
       <r>    -2.3264     0.0000    12.0000 </r>
       <r>    -2.2931     0.0000    12.0000 </r>
       <r>    -2.2597     0.0000    12.0000 </r>
       <r>    -2.2264     0.0000    12.0000 </r>
       <r>    -2.1931     0.0000    12.0000 </r>
       <r>    -2.1597     0.0000    12.0000 </r>
       <r>    -2.1264     0.0000    12.0000 </r>
       <r>    -2.0931     0.0000    12.0000 </r>
       <r>    -2.0597     0.0000    12.0000 </r>
       <r>    -2.0264     0.0000    12.0000 </r>
       <r>    -1.9931     0.0000    12.0000 </r>
       <r>    -1.9597     0.0000    12.0000 </r>
       <r>    -1.9264     0.0000    12.0000 </r>
       <r>    -1.8930     0.0000    12.0000 </r>
       <r>    -1.8597     0.0000    12.0000 </r>
       <r>    -1.8264     0.0000    12.0000 </r>
       <r>    -1.7930     0.0000    12.0000 </r>
       <r>    -1.7597     0.0000    12.0000 </r>
       <r>    -1.7264     0.0000    12.0000 </r>
       <r>    -1.6930     0.0000    12.0000 </r>
       <r>    -1.6597     0.0000    12.0000 </r>
       <r>    -1.6264     0.0000    12.0000 </r>
       <r>    -1.5930     0.0000    12.0000 </r>
       <r>    -1.5597     0.0000    12.0000 </r>
       <r>    -1.5264     0.0000    12.0000 </r>
       <r>    -1.4930     0.0000    12.0000 </r>
       <r>    -1.4597     0.0000    12.0000 </r>
       <r>    -1.4264     0.0000    12.0000 </r>
       <r>    -1.3930     0.0000    12.0000 </r>
       <r>    -1.3597     0.0000    12.0000 </r>
       <r>    -1.3263     0.0000    12.0000 </r>
       <r>    -1.2930     0.0000    12.0000 </r>
       <r>    -1.2597     0.0000    12.0000 </r>
       <r>    -1.2263     0.0000    12.0000 </r>
       <r>    -1.1930     0.0000    12.0000 </r>
       <r>    -1.1597     0.0000    12.0000 </r>
       <r>    -1.1263     0.0000    12.0000 </r>
       <r>    -1.0930     0.0000    12.0000 </r>
       <r>    -1.0597     0.0000    12.0000 </r>
       <r>    -1.0263     0.0000    12.0000 </r>
       <r>    -0.9930     0.0000    12.0000 </r>
       <r>    -0.9597     0.0000    12.0000 </r>
       <r>    -0.9263     0.0000    12.0000 </r>
       <r>    -0.8930     0.0000    12.0000 </r>
       <r>    -0.8597     0.0000    12.0000 </r>
       <r>    -0.8263     0.0000    12.0000 </r>
       <r>    -0.7930     0.0000    12.0000 </r>
       <r>    -0.7597     0.0000    12.0000 </r>
       <r>    -0.7263     0.0000    12.0000 </r>
       <r>    -0.6930     0.0000    12.0000 </r>
       <r>    -0.6596     0.0000    12.0000 </r>
       <r>    -0.6263     0.0000    12.0000 </r>
       <r>    -0.5930     0.0000    12.0000 </r>
       <r>    -0.5596     0.0000    12.0000 </r>
       <r>    -0.5263     0.0000    12.0000 </r>
       <r>    -0.4930     0.0000    12.0000 </r>
       <r>    -0.4596     0.0000    12.0000 </r>
       <r>    -0.4263     0.0000    12.0000 </r>
       <r>    -0.3930     0.0000    12.0000 </r>
       <r>    -0.3596     0.0000    12.0000 </r>
       <r>    -0.3263     0.0000    12.0000 </r>
       <r>    -0.2930     0.0000    12.0000 </r>
       <r>    -0.2596     0.0000    12.0000 </r>
       <r>    -0.2263     0.0000    12.0000 </r>
       <r>    -0.1930     0.0000    12.0000 </r>
       <r>    -0.1596     0.0000    12.0000 </r>
       <r>    -0.1263     0.0000    12.0000 </r>
       <r>    -0.0929     0.0000    12.0000 </r>
       <r>    -0.0596     0.0000    12.0000 </r>
       <r>    -0.0263     0.0000    12.0000 </r>
       <r>     0.0071     0.0000    12.0000 </r>
       <r>     0.0404    -0.0001    12.0000 </r>
       <r>     0.0737    -0.0002    12.0000 </r>
       <r>     0.1071    -0.0006    12.0000 </r>
       <r>     0.1404    -0.0015    11.9999 </r>
       <r>     0.1737    -0.0039    11.9998 </r>
       <r>     0.2071    -0.0096    11.9995 </r>
       <r>     0.2404    -0.0220    11.9987 </r>
       <r>     0.2737    -0.0475    11.9972 </r>
       <r>     0.3071    -0.0960    11.9940 </r>
       <r>     0.3404    -0.1816    11.9879 </r>
       <r>     0.3737    -0.3207    11.9772 </r>
       <r>     0.4071    -0.5257    11.9597 </r>
       <r>     0.4404    -0.7934    11.9332 </r>
       <r>     0.4738    -1.0863    11.8970 </r>
       <r>     0.5071    -1.3105    11.8533 </r>
       <r>     0.5404    -1.2970    11.8101 </r>
       <r>     0.5738    -0.7995    11.7834 </r>
       <r>     0.6071     0.4786    11.7994 </r>
       <r>     0.6404     2.8180    11.8933 </r>
       <r>     0.6738     6.3836    12.1061 </r>
       <r>     0.7071    11.1136    12.4766 </r>
       <r>     0.7404    16.6396    13.0313 </r>
       <r>     0.7738    22.2839    13.7741 </r>
       <r>     0.8071    27.1626    14.6796 </r>
       <r>     0.8404    30.3854    15.6925 </r>
       <r>     0.8738    31.2983    16.7358 </r>
       <r>     0.9071    29.6831    17.7253 </r>
       <r>     0.9404    25.8349    18.5865 </r>
       <r>     0.9738    20.4819    19.2693 </r>
       <r>     1.0071    14.5745    19.7551 </r>
       <r>     1.0404     9.0266    20.0561 </r>
       <r>     1.0738     4.5009    20.2061 </r>
       <r>     1.1071     1.3049    20.2496 </r>
       <r>     1.1405    -0.5889    20.2300 </r>
       <r>     1.1738    -1.4361    20.1821 </r>
       <r>     1.2071    -1.5844    20.1293 </r>
       <r>     1.2405    -1.3605    20.0839 </r>
       <r>     1.2738    -1.0071    20.0503 </r>
       <r>     1.3071    -0.6676    20.0281 </r>
       <r>     1.3405    -0.4036    20.0146 </r>
       <r>     1.3738    -0.2248    20.0071 </r>
       <r>     1.4071    -0.1162    20.0033 </r>
       <r>     1.4405    -0.0559    20.0014 </r>
       <r>     1.4738    -0.0251    20.0006 </r>
       <r>     1.5071    -0.0106    20.0002 </r>
       <r>     1.5405    -0.0042    20.0001 </r>
       <r>     1.5738    -0.0015    20.0000 </r>
       <r>     1.6071    -0.0005    20.0000 </r>
       <r>     1.6405    -0.0002    20.0000 </r>
       <r>     1.6738    -0.0001    20.0000 </r>
       <r>     1.7072     0.0000    20.0000 </r>
       <r>     1.7405     0.0000    20.0000 </r>
       <r>     1.7738     0.0000    20.0000 </r>
       <r>     1.8072     0.0000    20.0000 </r>
       <r>     1.8405     0.0000    20.0000 </r>
       <r>     1.8738     0.0000    20.0000 </r>
       <r>     1.9072     0.0000    20.0000 </r>
       <r>     1.9405     0.0000    20.0000 </r>
       <r>     1.9738     0.0000    20.0000 </r>
       <r>     2.0072     0.0000    20.0000 </r>
       <r>     2.0405     0.0000    20.0000 </r>
       <r>     2.0738     0.0000    20.0000 </r>
       <r>     2.1072     0.0000    20.0000 </r>
       <r>     2.1405     0.0000    20.0000 </r>
       <r>     2.1738     0.0000    20.0000 </r>
       <r>     2.2072     0.0000    20.0000 </r>
       <r>     2.2405     0.0000    20.0000 </r>
       <r>     2.2739     0.0000    20.0000 </r>
       <r>     2.3072     0.0000    20.0000 </r>
       <r>     2.3405     0.0000    20.0000 </r>
       <r>     2.3739     0.0000    20.0000 </r>
       <r>     2.4072     0.0000    20.0000 </r>
       <r>     2.4405     0.0000    20.0000 </r>
       <r>     2.4739     0.0000    20.0000 </r>
       <r>     2.5072     0.0000    20.0000 </r>
       <r>     2.5405     0.0000    20.0000 </r>
       <r>     2.5739     0.0000    20.0000 </r>
       <r>     2.6072     0.0000    20.0000 </r>
       <r>     2.6405     0.0000    20.0000 </r>
       <r>     2.6739     0.0000    20.0000 </r>
       <r>     2.7072     0.0000    20.0000 </r>
       <r>     2.7405     0.0000    20.0000 </r>
       <r>     2.7739     0.0000    20.0000 </r>
       <r>     2.8072     0.0000    20.0000 </r>
       <r>     2.8405     0.0000    20.0000 </r>
       <r>     2.8739     0.0000    20.0000 </r>
      </set>
     </set>
    </array>
   </total>
  </dos>
 </calculation>
 <structure name="finalpos" >
  <crystal>
   <varray name="basis" >
    <v>       6.00000000       0.00000000       0.00000000 </v>
    <v>       0.00000000       6.00000000       0.00000000 </v>
    <v>       0.00000000       0.00000000       6.00000000 </v>
   </varray>
   <i name="volume">    216.00000000 </i>
   <varray name="rec_basis" >
    <v>       0.16666667       0.00000000       0.00000000 </v>
    <v>       0.00000000       0.16666667       0.00000000 </v>
    <v>       0.00000000       0.00000000       0.16666667 </v>
   </varray>
  </crystal>
  <varray name="positions" >
   <v>       0.50000000       0.50000000       0.50000000 </v>
  </varray>
  <varray name="selective"  type="logical" >
   <v type="logical" >  T  T  T </v>
  </varray>
  <nose>
   <v>      -3.00000000       0.00000000       0.00010000       0.00010000 </v>
  </nose>
 </structure>
</modeling>
