 running on    8 total cores
 distrk:  each k-point on    8 cores,    1 groups
 distr:  one band on    4 cores,    2 groups
 using from now: INCAR     
 vasp.5.4.1 24Jun15 (build Jan 06 2016 13:19:48) gamma-only                     
  
 POSCAR found :  1 types and      38 ions
 scaLAPACK will be used
 LDA part: xc-table for Ceperly-Alder, standard interpolation
 POSCAR found :  1 types and      38 ions
 POSCAR, INCAR and KPOINTS ok, starting setup
 WARNING: small aliasing (wrap around) errors must be expected
 FFT: planning ...
 WAVECAR not read
 entering main loop
       N       E                     dE             d eps       ncg     rms          rms(c)
RMM:   1     0.469984103008E+04    0.46998E+04   -0.69566E+04   228   0.680E+02
RMM:   2     0.267580465673E+04   -0.20240E+04   -0.22412E+04   228   0.168E+02
RMM:   3     0.175547970753E+04   -0.92032E+03   -0.12063E+04   228   0.121E+02
RMM:   4     0.103983372887E+04   -0.71565E+03   -0.77073E+03   228   0.119E+02
RMM:   5     0.583382338339E+03   -0.45645E+03   -0.42432E+03   228   0.889E+01
RMM:   6     0.276587208713E+03   -0.30680E+03   -0.26219E+03   228   0.843E+01
RMM:   7     0.104547745529E+03   -0.17204E+03   -0.14876E+03   228   0.626E+01
RMM:   8    -0.148118043028E+02   -0.11936E+03   -0.96000E+02   228   0.671E+01
RMM:   9    -0.119921732074E+03   -0.10511E+03   -0.97749E+02   638   0.434E+01
RMM:  10    -0.162543587102E+03   -0.42622E+02   -0.40887E+02   714   0.151E+01
RMM:  11    -0.182724278099E+03   -0.20181E+02   -0.17030E+02   741   0.749E+00
RMM:  12    -0.191480851746E+03   -0.87566E+01   -0.74851E+01   750   0.423E+00    0.213E+01
RMM:  13    -0.182774934503E+03    0.87059E+01   -0.61292E+01   505   0.176E+01    0.829E+00
RMM:  14    -0.185088812355E+03   -0.23139E+01   -0.36630E+01   564   0.863E+00    0.608E+00
RMM:  15    -0.185798354813E+03   -0.70954E+00   -0.14545E+01   617   0.421E+00    0.425E+00
RMM:  16    -0.186408830856E+03   -0.61048E+00   -0.69084E+00   603   0.247E+00    0.343E+00
RMM:  17    -0.186694733053E+03   -0.28590E+00   -0.30873E+00   572   0.177E+00    0.275E+00
RMM:  18    -0.186928267281E+03   -0.23353E+00   -0.17176E+00   592   0.125E+00    0.241E+00
RMM:  19    -0.187011990274E+03   -0.83723E-01   -0.96468E-01   573   0.109E+00    0.186E+00
RMM:  20    -0.187040439464E+03   -0.28449E-01   -0.37538E-01   554   0.813E-01    0.136E+00
RMM:  21    -0.187080831642E+03   -0.40392E-01   -0.23240E-01   542   0.557E-01    0.111E+00
RMM:  22    -0.187088657913E+03   -0.78263E-02   -0.72321E-02   540   0.371E-01    0.816E-01
RMM:  23    -0.187112337268E+03   -0.23679E-01   -0.94019E-02   540   0.282E-01    0.783E-01
RMM:  24    -0.187118655193E+03   -0.63179E-02   -0.86076E-02   510   0.272E-01    0.544E-01
RMM:  25    -0.187120032892E+03   -0.13777E-02   -0.27943E-02   528   0.172E-01    0.401E-01
RMM:  26    -0.187119494706E+03    0.53819E-03   -0.11661E-02   494   0.180E-01    0.406E-01
RMM:  27    -0.187115002023E+03    0.44927E-02   -0.65559E-03   474   0.184E-01    0.268E-01
RMM:  28    -0.187113734119E+03    0.12679E-02   -0.24634E-03   479   0.110E-01    0.142E-01
RMM:  29    -0.187113939635E+03   -0.20552E-03   -0.64694E-04   386   0.577E-02    0.993E-02
RMM:  30    -0.187114455043E+03   -0.51541E-03   -0.16867E-04   280   0.444E-02    0.568E-02
RMM:  31    -0.187115789305E+03   -0.13343E-02   -0.17933E-04   281   0.410E-02    0.418E-02
RMM:  32    -0.187117127884E+03   -0.13386E-02   -0.16355E-04   278   0.314E-02    0.317E-02
RMM:  33    -0.187118131657E+03   -0.10038E-02   -0.11731E-04   264   0.238E-02    0.257E-02
RMM:  34    -0.187119333130E+03   -0.12015E-02   -0.17982E-04   282   0.220E-02    0.219E-02
RMM:  35    -0.187120400516E+03   -0.10674E-02   -0.20249E-04   290   0.213E-02    0.147E-02
RMM:  36    -0.187121212182E+03   -0.81167E-03   -0.17612E-04   281   0.195E-02    0.158E-02
RMM:  37    -0.187121853411E+03   -0.64123E-03   -0.22069E-04   294   0.199E-02    0.111E-02
RMM:  38    -0.187122029692E+03   -0.17628E-03   -0.87662E-05   240   0.156E-02    0.963E-03
RMM:  39    -0.187122100483E+03   -0.70791E-04   -0.46570E-05   216   0.129E-02
   1 F= -.18712210E+03 E0= -.18708087E+03  d E =-.187122E+03
 curvature:   0.00 expect dE= 0.000E+00 dE for cont linesearch  0.000E+00
 trial: gam= 0.00000 g(F)=  0.250E-01 g(S)=  0.000E+00 ort = 0.000E+00 (trialstep = 0.100E+01)
 search vector abs. value=  0.250E-01
 bond charge predicted
       N       E                     dE             d eps       ncg     rms          rms(c)
RMM:   1    -0.187142317783E+03   -0.20288E-01   -0.14298E+00   456   0.212E+00    0.160E-01
RMM:   2    -0.187145746421E+03   -0.34286E-02   -0.29982E-02   547   0.356E-01    0.201E-01
RMM:   3    -0.187145760482E+03   -0.14061E-04   -0.31167E-03   550   0.120E-01    0.155E-01
RMM:   4    -0.187145512989E+03    0.24749E-03   -0.34750E-04   303   0.461E-02    0.120E-01
RMM:   5    -0.187145285286E+03    0.22770E-03   -0.14373E-04   253   0.431E-02    0.555E-02
RMM:   6    -0.187145178294E+03    0.10699E-03   -0.32331E-04   288   0.432E-02    0.572E-02
RMM:   7    -0.187145124109E+03    0.54185E-04   -0.16747E-04   249   0.451E-02
   2 F= -.18714512E+03 E0= -.18710359E+03  d E =-.230236E-01
 ZBRENT: can't locate minimum, use default step
 trial-energy change:   -0.023024  1 .order   -0.023038   -0.024993   -0.021083
 step:   4.0000(harm=  6.3923)  dis= 0.02611  next Energy=  -187.201981 (dE=-0.799E-01)
 bond charge predicted
       N       E                     dE             d eps       ncg     rms          rms(c)
RMM:   1    -0.187165914105E+03   -0.20736E-01   -0.12861E+01   457   0.639E+00    0.560E-01
RMM:   2    -0.187229187309E+03   -0.63273E-01   -0.29486E-01   519   0.120E+00    0.162E+00
RMM:   3    -0.187194983954E+03    0.34203E-01   -0.44047E-02   572   0.440E-01    0.386E-01
RMM:   4    -0.187192575578E+03    0.24084E-02   -0.79012E-03   482   0.205E-01    0.389E-01
RMM:   5    -0.187190528551E+03    0.20470E-02   -0.14184E-03   465   0.873E-02    0.183E-01
RMM:   6    -0.187190277024E+03    0.25153E-03   -0.18585E-03   465   0.966E-02    0.176E-01
RMM:   7    -0.187189780565E+03    0.49646E-03   -0.13942E-03   460   0.807E-02    0.125E-01
RMM:   8    -0.187189572193E+03    0.20837E-03   -0.22651E-04   267   0.407E-02    0.589E-02
RMM:   9    -0.187189517998E+03    0.54195E-04   -0.13127E-04   248   0.394E-02
   3 F= -.18718952E+03 E0= -.18714722E+03  d E =-.674175E-01
 curvature:  -2.57 expect dE=-0.143E-01 dE for cont linesearch -0.837E-02
 ZBRENT: increasing intervall
 opt :  10.0000  next Energy=  -187.171344 (dE=-0.492E-01)
 bond charge predicted
       N       E                     dE             d eps       ncg     rms          rms(c)
RMM:   1    -0.187084993894E+03    0.10458E+00   -0.51399E+01   457   0.128E+01    0.156E+00
RMM:   2    -0.187821057580E+03   -0.73606E+00   -0.15840E+00   468   0.327E+00    0.630E+00
RMM:   3    -0.187207884613E+03    0.61317E+00   -0.33940E-01   553   0.122E+00    0.134E+00
RMM:   4    -0.187181852336E+03    0.26032E-01   -0.58465E-02   473   0.592E-01    0.914E-01
RMM:   5    -0.187173582342E+03    0.82700E-02   -0.12202E-02   487   0.250E-01    0.500E-01
RMM:   6    -0.187171430522E+03    0.21518E-02   -0.56815E-03   475   0.170E-01    0.374E-01
RMM:   7    -0.187169730020E+03    0.17005E-02   -0.70275E-03   470   0.182E-01    0.216E-01
RMM:   8    -0.187169551930E+03    0.17809E-03   -0.20142E-03   480   0.103E-01    0.224E-01
RMM:   9    -0.187168921499E+03    0.63043E-03   -0.79681E-04   419   0.675E-02    0.926E-02
RMM:  10    -0.187168758459E+03    0.16304E-03   -0.24422E-04   270   0.420E-02    0.676E-02
RMM:  11    -0.187168697630E+03    0.60829E-04   -0.10916E-04   248   0.357E-02
   4 F= -.18716870E+03 E0= -.18712580E+03  d E =-.465971E-01
 curvature:   5.57 expect dE= 0.145E+00 dE for cont linesearch  0.540E-01
 ZBRENT: bracketing found
 ZBRENT: interpolating
 opt :   6.2026  next Energy=  -187.199460 (dE=-0.774E-01)
 bond charge predicted
       N       E                     dE             d eps       ncg     rms          rms(c)
RMM:   1    -0.187160337060E+03    0.84214E-02   -0.20638E+01   457   0.811E+00    0.753E-01
RMM:   2    -0.187283913149E+03   -0.12358E+00   -0.48966E-01   506   0.173E+00    0.244E+00
RMM:   3    -0.187204835321E+03    0.79078E-01   -0.88872E-02   592   0.589E-01    0.413E-01
RMM:   4    -0.187201134730E+03    0.37006E-02   -0.89467E-03   467   0.231E-01    0.339E-01
RMM:   5    -0.187200299824E+03    0.83491E-03   -0.24802E-03   487   0.108E-01    0.272E-01
RMM:   6    -0.187199821212E+03    0.47861E-03   -0.26465E-03   469   0.115E-01    0.184E-01
RMM:   7    -0.187199086283E+03    0.73493E-03   -0.18105E-03   458   0.953E-02    0.102E-01
RMM:   8    -0.187199025551E+03    0.60733E-04   -0.34224E-04   291   0.474E-02
   5 F= -.18719903E+03 E0= -.18715637E+03  d E =-.769251E-01
 curvature:  -1.03 expect dE=-0.585E-02 dE for cont linesearch -0.164E-04
 trial: gam= 0.25323 g(F)=  0.570E-02 g(S)=  0.000E+00 ort =-0.631E-03 (trialstep = 0.204E+01)
 search vector abs. value=  0.698E-02
 bond charge predicted
       N       E                     dE             d eps       ncg     rms          rms(c)
RMM:   1    -0.187205131742E+03   -0.60455E-02   -0.16774E+00   457   0.233E+00    0.164E-01
RMM:   2    -0.187209114851E+03   -0.39831E-02   -0.36414E-02   542   0.424E-01    0.208E-01
RMM:   3    -0.187208965815E+03    0.14904E-03   -0.42229E-03   575   0.140E-01    0.156E-01
RMM:   4    -0.187208715162E+03    0.25065E-03   -0.28431E-04   294   0.412E-02    0.115E-01
RMM:   5    -0.187208549334E+03    0.16583E-03   -0.11838E-04   247   0.372E-02    0.749E-02
RMM:   6    -0.187208524494E+03    0.24839E-04   -0.31971E-04   276   0.437E-02
   6 F= -.18720852E+03 E0= -.18716675E+03  d E =-.949894E-02
 trial-energy change:   -0.009499  1 .order   -0.009592   -0.011300   -0.007884
 step:   6.7501(harm=  6.7501)  dis= 0.01452  next Energy=  -187.217716 (dE=-0.187E-01)
 bond charge predicted
       N       E                     dE             d eps       ncg     rms          rms(c)
RMM:   1    -0.187197541922E+03    0.11007E-01   -0.89192E+00   457   0.539E+00    0.408E-01
RMM:   2    -0.187221566109E+03   -0.24024E-01   -0.19801E-01   536   0.101E+00    0.634E-01
RMM:   3    -0.187219006088E+03    0.25600E-02   -0.25146E-02   584   0.335E-01    0.415E-01
RMM:   4    -0.187216845321E+03    0.21608E-02   -0.31322E-03   488   0.126E-01    0.273E-01
RMM:   5    -0.187215771742E+03    0.10736E-02   -0.61086E-04   386   0.588E-02    0.161E-01
RMM:   6    -0.187215398489E+03    0.37325E-03   -0.23015E-03   467   0.102E-01    0.154E-01
RMM:   7    -0.187215006414E+03    0.39207E-03   -0.84633E-04   445   0.586E-02    0.565E-02
RMM:   8    -0.187214959089E+03    0.47326E-04   -0.13482E-04   253   0.358E-02
   7 F= -.18721496E+03 E0= -.18717556E+03  d E =-.159335E-01
 curvature:  -4.25 expect dE=-0.126E-01 dE for cont linesearch -0.358E-03
 ZBRENT: interpolating
 opt :   5.9707  next Energy=  -187.215258 (dE=-0.162E-01)
 bond charge predicted
       N       E                     dE             d eps       ncg     rms          rms(c)
RMM:   1    -0.187214899723E+03    0.10669E-03   -0.24695E-01   457   0.895E-01    0.600E-02
RMM:   2    -0.187215639179E+03   -0.73946E-03   -0.51872E-03   532   0.161E-01    0.139E-01
RMM:   3    -0.187215436735E+03    0.20244E-03   -0.53862E-04   359   0.550E-02    0.626E-02
RMM:   4    -0.187215368486E+03    0.68249E-04   -0.10443E-04   244   0.331E-02
   8 F= -.18721537E+03 E0= -.18717557E+03  d E =-.163429E-01
 curvature:  -3.55 expect dE=-0.747E-02 dE for cont linesearch -0.152E-05
 trial: gam= 0.37728 g(F)=  0.210E-02 g(S)=  0.000E+00 ort = 0.546E-04 (trialstep = 0.283E+01)
 search vector abs. value=  0.314E-02
 bond charge predicted
       N       E                     dE             d eps       ncg     rms          rms(c)
RMM:   1    -0.187217460454E+03   -0.20237E-02   -0.14586E+00   457   0.215E+00    0.174E-01
RMM:   2    -0.187221612636E+03   -0.41522E-02   -0.34556E-02   541   0.397E-01    0.256E-01
RMM:   3    -0.187220627380E+03    0.98526E-03   -0.40435E-03   553   0.150E-01    0.109E-01
RMM:   4    -0.187220524210E+03    0.10317E-03   -0.28024E-04   304   0.376E-02    0.983E-02
RMM:   5    -0.187220429533E+03    0.94676E-04   -0.89189E-05   242   0.311E-02
   9 F= -.18722043E+03 E0= -.18718056E+03  d E =-.506105E-02
 trial-energy change:   -0.005061  1 .order   -0.005051   -0.006007   -0.004095
 step:   8.8824(harm=  8.8824)  dis= 0.01457  next Energy=  -187.224807 (dE=-0.944E-02)
 bond charge predicted
       N       E                     dE             d eps       ncg     rms          rms(c)
RMM:   1    -0.187212330464E+03    0.81937E-02   -0.67121E+00   457   0.462E+00    0.404E-01
RMM:   2    -0.187233945950E+03   -0.21615E-01   -0.15743E-01   527   0.884E-01    0.704E-01
RMM:   3    -0.187226906182E+03    0.70398E-02   -0.20589E-02   559   0.325E-01    0.331E-01
RMM:   4    -0.187225895630E+03    0.10106E-02   -0.25003E-03   511   0.108E-01    0.266E-01
RMM:   5    -0.187225111318E+03    0.78431E-03   -0.45690E-04   327   0.500E-02    0.176E-01
RMM:   6    -0.187224907294E+03    0.20402E-03   -0.12181E-03   469   0.817E-02    0.197E-01
RMM:   7    -0.187224074800E+03    0.83249E-03   -0.20420E-03   456   0.917E-02    0.639E-02
RMM:   8    -0.187223996736E+03    0.78064E-04   -0.18779E-04   256   0.444E-02
  10 F= -.18722400E+03 E0= -.18718398E+03  d E =-.862825E-02
 curvature:  -6.56 expect dE=-0.784E-02 dE for cont linesearch -0.180E-06
 trial: gam= 0.54688 g(F)=  0.119E-02 g(S)=  0.000E+00 ort = 0.927E-05 (trialstep = 0.404E+01)
 search vector abs. value=  0.214E-02
 bond charge predicted
       N       E                     dE             d eps       ncg     rms          rms(c)
RMM:   1    -0.187222681394E+03    0.13934E-02   -0.20142E+00   457   0.253E+00    0.213E-01
RMM:   2    -0.187228663054E+03   -0.59817E-02   -0.48627E-02   532   0.496E-01    0.317E-01
RMM:   3    -0.187227320150E+03    0.13429E-02   -0.62941E-03   560   0.180E-01    0.150E-01
RMM:   4    -0.187227164755E+03    0.15539E-03   -0.47156E-04   334   0.476E-02    0.132E-01
RMM:   5    -0.187226949845E+03    0.21491E-03   -0.12908E-04   248   0.357E-02    0.870E-02
RMM:   6    -0.187226890468E+03    0.59378E-04   -0.34989E-04   298   0.462E-02
  11 F= -.18722689E+03 E0= -.18718825E+03  d E =-.289373E-02
 trial-energy change:   -0.002894  1 .order   -0.003110   -0.004843   -0.001377
 step:   5.6423(harm=  5.6423)  dis= 0.00785  next Energy=  -187.227381 (dE=-0.338E-02)
 bond charge predicted
       N       E                     dE             d eps       ncg     rms          rms(c)
RMM:   1    -0.187226067434E+03    0.88241E-03   -0.32018E-01   457   0.102E+00    0.905E-02
RMM:   2    -0.187227134922E+03   -0.10675E-02   -0.73286E-03   516   0.199E-01    0.164E-01
RMM:   3    -0.187226902001E+03    0.23292E-03   -0.96919E-04   439   0.712E-02    0.945E-02
RMM:   4    -0.187226749100E+03    0.15290E-03   -0.17739E-04   253   0.404E-02    0.516E-02
RMM:   5    -0.187226703597E+03    0.45503E-04   -0.60076E-05   238   0.295E-02
  12 F= -.18722670E+03 E0= -.18718841E+03  d E =-.270686E-02
 curvature:  -5.04 expect dE=-0.153E-02 dE for cont linesearch -0.949E-04
 ZBRENT: interpolating
 opt :   5.0475  next Energy=  -187.226763 (dE=-0.277E-02)
 bond charge predicted
       N       E                     dE             d eps       ncg     rms          rms(c)
RMM:   1    -0.187226638773E+03    0.11033E-03   -0.43165E-02   457   0.370E-01    0.451E-02
RMM:   2    -0.187226920220E+03   -0.28145E-03   -0.13901E-03   481   0.797E-02    0.110E-01
RMM:   3    -0.187226723518E+03    0.19670E-03   -0.19356E-04   255   0.389E-02    0.309E-02
RMM:   4    -0.187226707792E+03    0.15726E-04   -0.67961E-05   237   0.282E-02
  13 F= -.18722671E+03 E0= -.18718828E+03  d E =-.271106E-02
 curvature:  -3.17 expect dE=-0.752E-03 dE for cont linesearch -0.213E-04
 ZBRENT: interpolating
 opt :   5.2698  next Energy=  -187.226721 (dE=-0.272E-02)
 bond charge predicted
       N       E                     dE             d eps       ncg     rms          rms(c)
RMM:   1    -0.187226682778E+03    0.40740E-04   -0.58162E-03   455   0.137E-01    0.135E-02
RMM:   2    -0.187226705500E+03   -0.22722E-04   -0.11191E-04   236   0.293E-02
  14 F= -.18722671E+03 E0= -.18718833E+03  d E =-.270876E-02
 curvature:  -1.99 expect dE=-0.551E-03 dE for cont linesearch -0.739E-04
 ZBRENT: interpolating
 opt :   5.1138  next Energy=  -187.226712 (dE=-0.272E-02)
 bond charge predicted
       N       E                     dE             d eps       ncg     rms          rms(c)
RMM:   1    -0.187226694578E+03   -0.11800E-04   -0.26985E-03   453   0.974E-02    0.140E-02
RMM:   2    -0.187226743939E+03   -0.49361E-04   -0.10321E-04   235   0.394E-02
  15 F= -.18722674E+03 E0= -.18718833E+03  d E =-.274720E-02
 curvature:  -0.11 expect dE=-0.280E-04 dE for cont linesearch -0.185E-05
 ZBRENT: bisectioning
 opt :   5.1918  next Energy=  -187.226762 (dE=-0.277E-02)
 bond charge predicted
       N       E                     dE             d eps       ncg     rms          rms(c)
RMM:   1    -0.187226703081E+03   -0.85035E-05   -0.62543E-04   406   0.495E-02    0.122E-02
RMM:   2    -0.187226723985E+03   -0.20904E-04   -0.49065E-05   233   0.258E-02
  16 F= -.18722672E+03 E0= -.18718834E+03  d E =-.272725E-02
 curvature:  -1.06 expect dE=-0.257E-03 dE for cont linesearch -0.118E-04
 ZBRENT: interpolating
 opt :   5.1571  next Energy=  -187.226727 (dE=-0.273E-02)
 bond charge predicted
       N       E                     dE             d eps       ncg     rms          rms(c)
RMM:   1    -0.187226704199E+03   -0.11176E-05   -0.11666E-04   230   0.241E-02    0.134E-02
RMM:   2    -0.187226756438E+03   -0.52239E-04   -0.41170E-05   234   0.203E-02
  17 F= -.18722676E+03 E0= -.18718834E+03  d E =-.275970E-02
 curvature:  -0.24 expect dE=-0.602E-04 dE for cont linesearch -0.737E-06
 ZBRENT: interpolating
 opt :   5.1690  next Energy=  -187.226757 (dE=-0.276E-02)
 bond charge predicted
       N       E                     dE             d eps       ncg     rms          rms(c)
RMM:   1    -0.187226708115E+03   -0.39157E-05   -0.27084E-05   235   0.193E-02    0.989E-03
RMM:   2    -0.187226720975E+03   -0.12861E-04   -0.19345E-05   231   0.143E-02
  18 F= -.18722672E+03 E0= -.18718834E+03  d E =-.272424E-02
 curvature:  -0.16 expect dE=-0.373E-04 dE for cont linesearch -0.583E-06
 ZBRENT: interpolating
 opt :   5.1628  next Energy=  -187.226757 (dE=-0.276E-02)
 bond charge predicted
       N       E                     dE             d eps       ncg     rms          rms(c)
RMM:   1    -0.187226704674E+03    0.34402E-05   -0.11040E-05   227   0.126E-02    0.102E-02
RMM:   2    -0.187226730442E+03   -0.25768E-04   -0.17675E-05   230   0.129E-02
  19 F= -.18722673E+03 E0= -.18718832E+03  d E =-.273371E-02
 curvature:  -0.06 expect dE=-0.153E-04 dE for cont linesearch -0.571E-08
 trial: gam= 0.10180 g(F)=  0.245E-03 g(S)=  0.000E+00 ort = 0.140E-04 (trialstep = 0.426E+01)
 search vector abs. value=  0.270E-03
 bond charge predicted
       N       E                     dE             d eps       ncg     rms          rms(c)
RMM:   1    -0.187226958740E+03   -0.25407E-03   -0.28169E-01   457   0.951E-01    0.836E-02
RMM:   2    -0.187227861611E+03   -0.90287E-03   -0.68275E-03   525   0.185E-01    0.142E-01
RMM:   3    -0.187227561221E+03    0.30039E-03   -0.87783E-04   439   0.711E-02    0.583E-02
RMM:   4    -0.187227526706E+03    0.34515E-04   -0.11317E-04   245   0.316E-02
  20 F= -.18722753E+03 E0= -.18718934E+03  d E =-.796264E-03
 trial-energy change:   -0.000796  1 .order   -0.000708   -0.001050   -0.000365
 step:   6.5334(harm=  6.5334)  dis= 0.00178  next Energy=  -187.227535 (dE=-0.805E-03)
 bond charge predicted
       N       E                     dE             d eps       ncg     rms          rms(c)
RMM:   1    -0.187227580762E+03   -0.19541E-04   -0.81373E-02   457   0.511E-01    0.586E-02
RMM:   2    -0.187227872742E+03   -0.29198E-03   -0.18118E-03   471   0.103E-01    0.104E-01
RMM:   3    -0.187227754997E+03    0.11774E-03   -0.23497E-04   260   0.384E-02    0.649E-02
RMM:   4    -0.187227701342E+03    0.53655E-04   -0.10852E-04   240   0.377E-02
  21 F= -.18722770E+03 E0= -.18718966E+03  d E =-.970900E-03
 curvature:  -3.58 expect dE=-0.239E-03 dE for cont linesearch -0.179E-05
 trial: gam= 0.20295 g(F)=  0.666E-04 g(S)=  0.000E+00 ort = 0.116E-04 (trialstep = 0.472E+01)
 search vector abs. value=  0.825E-04
 bond charge predicted
       N       E                     dE             d eps       ncg     rms          rms(c)
RMM:   1    -0.187227775998E+03   -0.21001E-04   -0.10590E-01   456   0.586E-01    0.543E-02
RMM:   2    -0.187228223185E+03   -0.44719E-03   -0.24816E-03   525   0.110E-01    0.124E-01
RMM:   3    -0.187228038058E+03    0.18513E-03   -0.26340E-04   266   0.449E-02    0.586E-02
RMM:   4    -0.187227978844E+03    0.59214E-04   -0.11255E-04   242   0.363E-02
  22 F= -.18722798E+03 E0= -.18718993E+03  d E =-.277501E-03
 trial-energy change:   -0.000278  1 .order   -0.000205   -0.000325   -0.000085
 step:   6.3849(harm=  6.3849)  dis= 0.00109  next Energy=  -187.227922 (dE=-0.220E-03)
 bond charge predicted
       N       E                     dE             d eps       ncg     rms          rms(c)
RMM:   1    -0.187228003128E+03    0.34930E-04   -0.13749E-02   456   0.212E-01    0.301E-02
RMM:   2    -0.187228082813E+03   -0.79686E-04   -0.26427E-04   249   0.479E-02
  23 F= -.18722808E+03 E0= -.18719009E+03  d E =-.381471E-03
 curvature:  -3.82 expect dE=-0.243E-03 dE for cont linesearch -0.103E-03
 ZBRENT: interpolating
 opt :   5.1776  next Energy=  -187.227983 (dE=-0.282E-03)
 bond charge predicted
       N       E                     dE             d eps       ncg     rms          rms(c)
RMM:   1    -0.187227972111E+03    0.31017E-04   -0.61524E-03   455   0.147E-01    0.333E-02
RMM:   2    -0.187228139532E+03   -0.16742E-03   -0.35841E-04   305   0.678E-02    0.106E-01
RMM:   3    -0.187227996382E+03    0.14315E-03   -0.84259E-05   243   0.333E-02    0.292E-02
RMM:   4    -0.187227967281E+03    0.29101E-04   -0.36147E-05   236   0.182E-02
  24 F= -.18722797E+03 E0= -.18718994E+03  d E =-.265939E-03
 curvature:  -0.15 expect dE=-0.963E-05 dE for cont linesearch -0.700E-05
 ZBRENT: interpolating
 opt :   5.8597  next Energy=  -187.228095 (dE=-0.394E-03)
 bond charge predicted
       N       E                     dE             d eps       ncg     rms          rms(c)
RMM:   1    -0.187227988300E+03    0.80822E-05   -0.20527E-03   451   0.839E-02    0.976E-03
RMM:   2    -0.187228000828E+03   -0.12528E-04   -0.41697E-05   231   0.210E-02
  25 F= -.18722800E+03 E0= -.18718995E+03  d E =-.299486E-03
 curvature:  -0.27 expect dE=-0.677E-05 dE for cont linesearch -0.252E-07
 trial: gam= 0.47202 g(F)=  0.249E-04 g(S)=  0.000E+00 ort = 0.276E-05 (trialstep = 0.495E+01)
 search vector abs. value=  0.459E-04
 bond charge predicted
       N       E                     dE             d eps       ncg     rms          rms(c)
RMM:   1    -0.187228021283E+03   -0.32983E-04   -0.64519E-02   457   0.456E-01    0.360E-02
RMM:   2    -0.187228209663E+03   -0.18838E-03   -0.13996E-03   484   0.834E-02    0.632E-02
RMM:   3    -0.187228177975E+03    0.31688E-04   -0.14326E-04   239   0.304E-02
  26 F= -.18722818E+03 E0= -.18719038E+03  d E =-.177147E-03
 trial-energy change:   -0.000177  1 .order   -0.000050   -0.000129    0.000030
 step:   4.0158(harm=  4.0158)  dis= 0.00055  next Energy=  -187.228053 (dE=-0.526E-04)
 bond charge predicted
       N       E                     dE             d eps       ncg     rms          rms(c)
RMM:   1    -0.187228125551E+03    0.84111E-04   -0.20017E-03   451   0.866E-02    0.201E-02
RMM:   2    -0.187228134101E+03   -0.85500E-05   -0.79783E-05   232   0.328E-02
  27 F= -.18722813E+03 E0= -.18719032E+03  d E =-.133273E-03
 curvature:  -3.52 expect dE=-0.235E-03 dE for cont linesearch -0.196E-03
 ZBRENT: interpolating
 opt :   4.8460  next Energy=  -187.228178 (dE=-0.177E-03)
 bond charge predicted
       N       E                     dE             d eps       ncg     rms          rms(c)
RMM:   1    -0.187228142813E+03   -0.17262E-04   -0.16299E-03   451   0.760E-02    0.179E-02
RMM:   2    -0.187228257215E+03   -0.11440E-03   -0.75131E-05   244   0.284E-02    0.879E-02
RMM:   3    -0.187228151664E+03    0.10555E-03   -0.32784E-05   237   0.233E-02    0.711E-03
RMM:   4    -0.187228140592E+03    0.11072E-04   -0.67481E-06   214   0.791E-03
  28 F= -.18722814E+03 E0= -.18719035E+03  d E =-.139764E-03
 curvature:  -0.01 expect dE=-0.806E-07 dE for cont linesearch -0.242E-07
 ZBRENT: interpolating
 opt :   4.9159  next Energy=  -187.228178 (dE=-0.177E-03)
 bond charge predicted
       N       E                     dE             d eps       ncg     rms          rms(c)
RMM:   1    -0.187228141223E+03    0.10441E-04   -0.17895E-05   231   0.944E-03    0.361E-03
RMM:   2    -0.187228144009E+03   -0.27860E-05   -0.48083E-06   227   0.828E-03
  29 F= -.18722814E+03 E0= -.18719035E+03  d E =-.143182E-03
 curvature:  -0.02 expect dE=-0.321E-06 dE for cont linesearch -0.906E-07
 ZBRENT: interpolating
 opt :   4.9367  next Energy=  -187.228178 (dE=-0.177E-03)
 bond charge predicted
       N       E                     dE             d eps       ncg     rms          rms(c)
RMM:   1    -0.187228141885E+03   -0.66160E-06   -0.18155E-06   120   0.554E-03    0.276E-03
RMM:   2    -0.187228143424E+03   -0.15385E-05   -0.13992E-06   110   0.535E-03
  30 F= -.18722814E+03 E0= -.18719035E+03  d E =-.142596E-03
 curvature:  -0.01 expect dE=-0.870E-07 dE for cont linesearch -0.173E-07
 ZBRENT: interpolating
 opt :   4.9424  next Energy=  -187.228178 (dE=-0.177E-03)
 bond charge predicted
       N       E                     dE             d eps       ncg     rms          rms(c)
RMM:   1    -0.187228141921E+03   -0.36394E-07   -0.61959E-07    67   0.449E-03    0.235E-03
RMM:   2    -0.187228143088E+03   -0.11663E-05   -0.13271E-06   127   0.542E-03
  31 F= -.18722814E+03 E0= -.18719035E+03  d E =-.142260E-03
 curvature:   0.00 expect dE=-0.461E-07 dE for cont linesearch -0.108E-07
 ZBRENT: interpolating
 opt :   4.9445  next Energy=  -187.228178 (dE=-0.177E-03)
 bond charge predicted
       N       E                     dE             d eps       ncg     rms          rms(c)
RMM:   1    -0.187228141912E+03    0.92987E-08   -0.22254E-08    26   0.400E-03    0.202E-03
RMM:   2    -0.187228142830E+03   -0.91784E-06   -0.19671E-07    35   0.455E-03
  32 F= -.18722814E+03 E0= -.18719035E+03  d E =-.142002E-03
 curvature:   0.00 expect dE=-0.121E-07 dE for cont linesearch -0.262E-08
 ZBRENT: interpolating
 opt :   4.9451  next Energy=  -187.228178 (dE=-0.177E-03)
 bond charge predicted
       N       E                     dE             d eps       ncg     rms          rms(c)
RMM:   1    -0.187228141884E+03    0.28122E-07   -0.10916E-07    26   0.419E-03    0.167E-03
RMM:   2    -0.187228142625E+03   -0.74061E-06   -0.30316E-09    19   0.388E-03
  33 F= -.18722814E+03 E0= -.18719035E+03  d E =-.141797E-03
 curvature:   0.00 expect dE=-0.445E-08 dE for cont linesearch -0.963E-09
 ZBRENT: interpolating
 opt :   4.9453  next Energy=  -187.228178 (dE=-0.177E-03)
 bond charge predicted
       N       E                     dE             d eps       ncg     rms          rms(c)
RMM:   1    -0.187228141848E+03    0.35696E-07   -0.14430E-08    18   0.401E-03    0.141E-03
RMM:   2    -0.187228142300E+03   -0.45147E-06    0.13683E-77    12   0.424E-03
  34 F= -.18722814E+03 E0= -.18719035E+03  d E =-.141472E-03
 curvature:   0.00 expect dE=-0.150E-08 dE for cont linesearch -0.330E-09
 ZBRENT: interpolating
 opt :   4.9454  next Energy=  -187.228178 (dE=-0.177E-03)
 bond charge predicted
       N       E                     dE             d eps       ncg     rms          rms(c)
RMM:   1    -0.187228141798E+03    0.49757E-07    0.10248E-77    12   0.411E-03    0.122E-03
RMM:   2    -0.187228142197E+03   -0.39898E-06    0.33285-119    11   0.391E-03
  35 F= -.18722814E+03 E0= -.18719035E+03  d E =-.141370E-03
 curvature:   0.00 expect dE=-0.500E-09 dE for cont linesearch -0.109E-09
 ZBRENT: interpolating
 opt :   4.9454  next Energy=  -187.228178 (dE=-0.177E-03)
 bond charge predicted
       N       E                     dE             d eps       ncg     rms          rms(c)
RMM:   1    -0.187228141778E+03    0.20791E-07    0.28910-119    11   0.402E-03    0.103E-03
RMM:   2    -0.187228142026E+03   -0.24836E-06    0.27684E-33    13   0.418E-03
  36 F= -.18722814E+03 E0= -.18719035E+03  d E =-.141198E-03
 curvature:   0.00 expect dE=-0.170E-09 dE for cont linesearch -0.377E-10
 ZBRENT: interpolating
 opt :   4.9454  next Energy=  -187.228178 (dE=-0.177E-03)
 bond charge predicted
       N       E                     dE             d eps       ncg     rms          rms(c)
RMM:   1    -0.187228141751E+03    0.26743E-07    0.14072-119     9   0.410E-03    0.903E-04
RMM:   2    -0.187228141961E+03   -0.21039E-06    0.13118-119     9   0.394E-03
  37 F= -.18722814E+03 E0= -.18719035E+03  d E =-.141133E-03
 curvature:   0.00 expect dE=-0.564E-10 dE for cont linesearch -0.125E-10
 ZBRENT: interpolating
 opt :   4.9454  next Energy=  -187.228178 (dE=-0.177E-03)
 bond charge predicted
       N       E                     dE             d eps       ncg     rms          rms(c)
RMM:   1    -0.187228141737E+03    0.14021E-07    0.11374-119     9   0.404E-03    0.765E-04
RMM:   2    -0.187228141875E+03   -0.13839E-06    0.99791-120     9   0.414E-03
  38 F= -.18722814E+03 E0= -.18719035E+03  d E =-.141047E-03
 curvature:   0.00 expect dE=-0.190E-10 dE for cont linesearch -0.427E-11
 ZBRENT: interpolating
 opt :   4.9454  next Energy=  -187.228178 (dE=-0.177E-03)
 bond charge predicted
       N       E                     dE             d eps       ncg     rms          rms(c)
RMM:   1    -0.187228141722E+03    0.14763E-07    0.87946-120     9   0.410E-03    0.671E-04
RMM:   2    -0.187228141835E+03   -0.11307E-06    0.81693-120     9   0.397E-03
  39 F= -.18722814E+03 E0= -.18719035E+03  d E =-.141007E-03
 curvature:   0.00 expect dE=-0.633E-11 dE for cont linesearch -0.141E-11
 ZBRENT: interpolating
 opt :   4.9454  next Energy=  -187.228178 (dE=-0.177E-03)
 bond charge predicted
       N       E                     dE             d eps       ncg     rms          rms(c)
RMM:   1    -0.187228141713E+03    0.87530E-08    0.71096-120     9   0.405E-03    0.573E-04
RMM:   2    -0.187228141791E+03   -0.77463E-07    0.35331-120     8   0.412E-03
  40 F= -.18722814E+03 E0= -.18719035E+03  d E =-.140963E-03
 curvature:   0.00 expect dE=-0.213E-11 dE for cont linesearch -0.482E-12
 ZBRENT:  accuracy reached
 opt :   0.0000  next Energy=     0.000000 (dE= 0.187E+03)
 bond charge predicted
       N       E                     dE             d eps       ncg     rms          rms(c)
RMM:   1    -0.187227867082E+03    0.27463E-03   -0.63371E-02   457   0.453E-01    0.339E-02
RMM:   2    -0.187228022905E+03   -0.15582E-03   -0.13362E-03   470   0.833E-02    0.448E-02
RMM:   3    -0.187228014807E+03    0.80975E-05   -0.14323E-04   234   0.307E-02
  41 F= -.18722801E+03 E0= -.18718999E+03  d E =-.139791E-04
 curvature:   0.00 expect dE= 0.231-307 dE for cont linesearch  0.225-307
 ZBRENT: fatal error in bracketing
     please rerun with smaller EDIFF, or copy CONTCAR
     to POSCAR and continue
 running on    8 total cores
 distrk:  each k-point on    8 cores,    1 groups
 distr:  one band on    4 cores,    2 groups
 using from now: INCAR     
 vasp.5.4.1 24Jun15 (build Jan 06 2016 13:19:48) gamma-only                     
  
 POSCAR found :  1 types and      38 ions
 scaLAPACK will be used
 LDA part: xc-table for Ceperly-Alder, standard interpolation
 POSCAR found :  1 types and      38 ions
 POSCAR, INCAR and KPOINTS ok, starting setup
 WARNING: small aliasing (wrap around) errors must be expected
 FFT: planning ...
 WAVECAR not read
 WARNING: random wavefunctions but no delay for mixing, default for NELMDL
 entering main loop
       N       E                     dE             d eps       ncg     rms          rms(c)
RMM:   1     0.587058477062E+04    0.58706E+04   -0.16665E+05   274   0.764E+02
RMM:   2     0.162689400697E+04   -0.42437E+04   -0.90303E+04   274   0.291E+02
RMM:   3     0.176850269292E+04    0.14161E+03   -0.45388E+04   274   0.313E+02
RMM:   4     0.104875987595E+04   -0.71974E+03   -0.11919E+04   274   0.192E+02
RMM:   5     0.725201326283E+03   -0.32356E+03   -0.51553E+03   274   0.152E+02
RMM:   6     0.550382032499E+03   -0.17482E+03   -0.35403E+03   274   0.131E+02
RMM:   7     0.482440316691E+03   -0.67942E+02   -0.26360E+03   274   0.126E+02
RMM:   8     0.315022121757E+03   -0.16742E+03   -0.40304E+03   274   0.127E+02
RMM:   9     0.321729840786E+03    0.67077E+01   -0.29450E+03   818   0.124E+02
RMM:  10     0.593166992262E+03    0.27144E+03   -0.15307E+03   754   0.852E+01
RMM:  11     0.760212692742E+03    0.16705E+03    0.63072E+01   810   0.444E+01
RMM:  12     0.765898267060E+03    0.56856E+01   -0.39752E+02   871   0.159E+01    0.378E+01
RMM:  13     0.804560740929E+03    0.38662E+02   -0.85257E+02   861   0.319E+01    0.244E+01
RMM:  14     0.842416659900E+03    0.37856E+02   -0.88478E+01   773   0.185E+01    0.113E+01
RMM:  15     0.837683671000E+03   -0.47330E+01   -0.12539E+02   904   0.105E+01    0.104E+01
RMM:  16     0.835710347059E+03   -0.19733E+01   -0.51203E+01   932   0.592E+00    0.962E+00
RMM:  17     0.832907802139E+03   -0.28025E+01   -0.34544E+01   954   0.386E+00    0.940E+00
RMM:  18     0.831724642874E+03   -0.11832E+01   -0.19009E+01   992   0.302E+00    0.819E+00
RMM:  19     0.830227262301E+03   -0.14974E+01   -0.25614E+01   872   0.417E+00    0.605E+00
RMM:  20     0.829637854456E+03   -0.58941E+00   -0.20398E+01   940   0.347E+00    0.740E+00
RMM:  21     0.830302883834E+03    0.66503E+00   -0.83348E+00   946   0.241E+00    0.532E+00
RMM:  22     0.830283946490E+03   -0.18937E-01   -0.65205E+00   947   0.181E+00    0.283E+00
RMM:  23     0.830005129459E+03   -0.27882E+00   -0.34400E+00   929   0.105E+00    0.214E+00
RMM:  24     0.829841947450E+03   -0.16318E+00   -0.19297E+00   962   0.784E-01    0.180E+00
RMM:  25     0.829714167580E+03   -0.12778E+00   -0.14484E+00   969   0.657E-01    0.151E+00
RMM:  26     0.829637037000E+03   -0.77131E-01   -0.11642E+00   891   0.752E-01    0.110E+00
RMM:  27     0.829569048542E+03   -0.67988E-01   -0.99959E-01   937   0.667E-01    0.869E-01
RMM:  28     0.829540541317E+03   -0.28507E-01   -0.69254E-01   943   0.661E-01    0.582E-01
RMM:  29     0.829477562656E+03   -0.62979E-01   -0.71434E-01   921   0.456E-01    0.659E-01
RMM:  30     0.829449166309E+03   -0.28396E-01   -0.41653E-01   934   0.413E-01    0.666E-01
RMM:  31     0.829386870723E+03   -0.62296E-01   -0.65059E-01   917   0.402E-01    0.902E-01
RMM:  32     0.829359170313E+03   -0.27700E-01   -0.33264E-01   932   0.347E-01    0.103E+00
RMM:  33     0.829334418761E+03   -0.24752E-01   -0.43219E-01   932   0.349E-01    0.823E-01
RMM:  34     0.829323235629E+03   -0.11183E-01   -0.29698E-01   893   0.367E-01    0.383E-01
RMM:  35     0.829291420960E+03   -0.31815E-01   -0.35921E-01   904   0.285E-01    0.231E-01
RMM:  36     0.829270383596E+03   -0.21037E-01   -0.21776E-01   872   0.202E-01    0.233E-01
RMM:  37     0.829245258330E+03   -0.25125E-01   -0.26104E-01   915   0.190E-01    0.182E-01
RMM:  38     0.829225551379E+03   -0.19707E-01   -0.20101E-01   873   0.175E-01    0.118E-01
RMM:  39     0.829202479647E+03   -0.23072E-01   -0.22330E-01   881   0.167E-01    0.610E-02
RMM:  40     0.829183281303E+03   -0.19198E-01   -0.17941E-01   684   0.135E-01    0.512E-02
RMM:  41     0.829162843528E+03   -0.20438E-01   -0.19260E-01   720   0.130E-01    0.567E-02
RMM:  42     0.829145340003E+03   -0.17504E-01   -0.16536E-01   628   0.121E-01    0.618E-02
RMM:  43     0.829127332905E+03   -0.18007E-01   -0.17302E-01   553   0.109E-01    0.662E-02
RMM:  44     0.829111105103E+03   -0.16228E-01   -0.15655E-01   521   0.103E-01    0.108E-01
RMM:  45     0.829094342964E+03   -0.16762E-01   -0.16085E-01   670   0.108E-01    0.111E-01
RMM:  46     0.829078709216E+03   -0.15634E-01   -0.14969E-01   755   0.113E-01    0.962E-02
RMM:  47     0.829063262523E+03   -0.15447E-01   -0.14870E-01   579   0.975E-02    0.103E-01
RMM:  48     0.829048845454E+03   -0.14417E-01   -0.13935E-01   489   0.856E-02    0.130E-01
RMM:  49     0.829034250831E+03   -0.14595E-01   -0.14044E-01   487   0.866E-02    0.157E-01
RMM:  50     0.829020421540E+03   -0.13829E-01   -0.13340E-01   547   0.855E-02    0.190E-01
RMM:  51     0.829006578470E+03   -0.13843E-01   -0.13388E-01   438   0.788E-02    0.225E-01
RMM:  52     0.828993235762E+03   -0.13343E-01   -0.12869E-01   417   0.755E-02    0.266E-01
RMM:  53     0.828979896138E+03   -0.13340E-01   -0.12885E-01   419   0.745E-02    0.312E-01
RMM:  54     0.828967037643E+03   -0.12858E-01   -0.12423E-01   403   0.738E-02    0.359E-01
RMM:  55     0.828954191075E+03   -0.12847E-01   -0.12443E-01   444   0.748E-02    0.408E-01
RMM:  56     0.828941601217E+03   -0.12590E-01   -0.12164E-01   402   0.699E-02    0.461E-01
RMM:  57     0.828929081295E+03   -0.12520E-01   -0.12097E-01   375   0.676E-02    0.518E-01
RMM:  58     0.828916867992E+03   -0.12213E-01   -0.11897E-01   399   0.669E-02    0.575E-01
RMM:  59     0.828904674944E+03   -0.12193E-01   -0.11809E-01   403   0.669E-02    0.637E-01
RMM:  60     0.828892632195E+03   -0.12043E-01   -0.11649E-01   374   0.661E-02
   1 F= 0.82889263E+03 E0= 0.82883610E+03  d E =0.828893E+03
 curvature:   0.00 expect dE= 0.000E+00 dE for cont linesearch  0.000E+00
 trial: gam= 0.00000 g(F)=  0.326E+01 g(S)=  0.000E+00 ort = 0.000E+00 (trialstep = 0.100E+01)
 search vector abs. value=  0.326E+01
 bond charge predicted
       N       E                     dE             d eps       ncg     rms          rms(c)
RMM:   1     0.824731383717E+03   -0.41733E+01   -0.12642E+02   667   0.182E+01    0.247E+00
RMM:   2     0.826033133956E+03    0.13018E+01    0.96387E+00   749   0.624E+00    0.187E+00
RMM:   3     0.825858889841E+03   -0.17424E+00   -0.21702E+00   980   0.177E+00    0.133E+00
RMM:   4     0.825832843600E+03   -0.26046E-01   -0.74161E-01  1007   0.873E-01    0.109E+00
RMM:   5     0.825839310269E+03    0.64667E-02   -0.34565E-01  1025   0.578E-01    0.540E-01
RMM:   6     0.825821753251E+03   -0.17557E-01   -0.25857E-01  1010   0.421E-01    0.533E-01
RMM:   7     0.825816818148E+03   -0.49351E-02   -0.13343E-01  1014   0.281E-01    0.318E-01
RMM:   8     0.825808584032E+03   -0.82341E-02   -0.10304E-01  1017   0.189E-01    0.216E-01
RMM:   9     0.825800206580E+03   -0.83775E-02   -0.86604E-02  1013   0.133E-01    0.159E-01
RMM:  10     0.825792108348E+03   -0.80982E-02   -0.83564E-02   982   0.106E-01    0.110E-01
RMM:  11     0.825784655497E+03   -0.74529E-02   -0.74355E-02   952   0.885E-02    0.104E-01
RMM:  12     0.825777513777E+03   -0.71417E-02   -0.71414E-02   873   0.776E-02    0.691E-02
RMM:  13     0.825770486304E+03   -0.70275E-02   -0.68472E-02   641   0.650E-02    0.553E-02
RMM:  14     0.825763490275E+03   -0.69960E-02   -0.67010E-02   595   0.629E-02    0.424E-02
RMM:  15     0.825756737678E+03   -0.67526E-02   -0.64671E-02   579   0.654E-02    0.267E-02
WARNING in EDDRMM: call to ZHEGV failed, returncode =   6  3 87
RMM:  16     0.825750129430E+03   -0.66082E-02   -0.63281E-02   550   0.590E-02    0.181E-02
RMM:  17     0.825743748261E+03   -0.63812E-02   -0.61331E-02   463   0.539E-02    0.194E-02
RMM:  18     0.825737575100E+03   -0.61732E-02   -0.59947E-02   486   0.536E-02    0.297E-02
RMM:  19     0.825731497484E+03   -0.60776E-02   -0.58443E-02   492   0.535E-02    0.416E-02
RMM:  20     0.825725581303E+03   -0.59162E-02   -0.57011E-02   464   0.507E-02    0.545E-02
RMM:  21     0.825719857450E+03   -0.57239E-02   -0.55619E-02   410   0.492E-02    0.710E-02
RMM:  22     0.825714194591E+03   -0.56629E-02   -0.54209E-02   467   0.490E-02    0.853E-02
RMM:  23     0.825708713509E+03   -0.54811E-02   -0.52828E-02   447   0.491E-02    0.999E-02
RMM:  24     0.825703400106E+03   -0.53134E-02   -0.51522E-02   430   0.480E-02    0.116E-01
RMM:  25     0.825698228069E+03   -0.51720E-02   -0.50223E-02   407   0.455E-02    0.136E-01
RMM:  26     0.825693176908E+03   -0.50512E-02   -0.49033E-02   379   0.452E-02    0.156E-01
RMM:  27     0.825688254176E+03   -0.49227E-02   -0.47820E-02   402   0.460E-02    0.177E-01
RMM:  28     0.825683447070E+03   -0.48071E-02   -0.46652E-02   380   0.448E-02    0.199E-01
RMM:  29     0.825678748094E+03   -0.46990E-02   -0.45646E-02   345   0.422E-02    0.222E-01
RMM:  30     0.825674157623E+03   -0.45905E-02   -0.44571E-02   343   0.417E-02    0.247E-01
RMM:  31     0.825669678507E+03   -0.44791E-02   -0.43550E-02   320   0.405E-02    0.272E-01
RMM:  32     0.825665298923E+03   -0.43796E-02   -0.42544E-02   319   0.393E-02    0.299E-01
RMM:  33     0.825661011514E+03   -0.42874E-02   -0.41639E-02   306   0.382E-02    0.326E-01
RMM:  34     0.825656820027E+03   -0.41915E-02   -0.40728E-02   294   0.379E-02    0.354E-01
RMM:  35     0.825652717880E+03   -0.41021E-02   -0.39861E-02   298   0.378E-02    0.382E-01
RMM:  36     0.825648708092E+03   -0.40098E-02   -0.39014E-02   298   0.377E-02    0.411E-01
RMM:  37     0.825644778677E+03   -0.39294E-02   -0.38217E-02   299   0.375E-02    0.439E-01
RMM:  38     0.825640930314E+03   -0.38484E-02   -0.37423E-02   307   0.375E-02    0.469E-01
RMM:  39     0.825637153693E+03   -0.37766E-02   -0.36697E-02   279   0.360E-02    0.499E-01
RMM:  40     0.825633454534E+03   -0.36992E-02   -0.35973E-02   285   0.366E-02    0.529E-01
RMM:  41     0.825629830398E+03   -0.36241E-02   -0.35261E-02   297   0.369E-02    0.559E-01
RMM:  42     0.825626273965E+03   -0.35564E-02   -0.34586E-02   289   0.362E-02    0.590E-01
RMM:  43     0.825622773223E+03   -0.35007E-02   -0.34046E-02   301   0.358E-02    0.620E-01
RMM:  44     0.825619348742E+03   -0.34245E-02   -0.33315E-02   289   0.348E-02    0.651E-01
RMM:  45     0.825615979344E+03   -0.33694E-02   -0.32777E-02   273   0.344E-02    0.682E-01
RMM:  46     0.825612663519E+03   -0.33158E-02   -0.32252E-02   281   0.350E-02    0.713E-01
RMM:  47     0.825609409638E+03   -0.32539E-02   -0.31726E-02   288   0.350E-02    0.744E-01
RMM:  48     0.825606200026E+03   -0.32096E-02   -0.31255E-02   287   0.350E-02    0.774E-01
RMM:  49     0.825603045835E+03   -0.31542E-02   -0.30720E-02   282   0.343E-02    0.805E-01
RMM:  50     0.825599932413E+03   -0.31134E-02   -0.30271E-02   292   0.338E-02    0.836E-01
RMM:  51     0.825596869652E+03   -0.30628E-02   -0.29860E-02   278   0.337E-02    0.866E-01
RMM:  52     0.825593860572E+03   -0.30091E-02   -0.29422E-02   293   0.342E-02    0.897E-01
RMM:  53     0.825590860684E+03   -0.29999E-02   -0.29054E-02   282   0.334E-02    0.928E-01
RMM:  54     0.825587923136E+03   -0.29375E-02   -0.28604E-02   293   0.334E-02    0.958E-01
RMM:  55     0.825585018232E+03   -0.29049E-02   -0.28288E-02   273   0.324E-02    0.989E-01
RMM:  56     0.825582147019E+03   -0.28712E-02   -0.27955E-02   285   0.332E-02    0.102E+00
RMM:  57     0.825579337105E+03   -0.28099E-02   -0.27549E-02   281   0.327E-02    0.105E+00
RMM:  58     0.825576537393E+03   -0.27997E-02   -0.27233E-02   269   0.329E-02    0.108E+00
RMM:  59     0.825573770242E+03   -0.27672E-02   -0.26941E-02   258   0.319E-02    0.111E+00
RMM:  60     0.825571025969E+03   -0.27443E-02   -0.26715E-02   290   0.329E-02
   2 F= 0.82557103E+03 E0= 0.82551296E+03  d E =-.332161E+01
 ZBRENT: can't locate minimum, use default step
 trial-energy change:   -3.321606  1 .order   -3.004479   -3.260651   -2.748307
 step:   4.0000(harm=  6.3642)  dis= 0.12295  next Energy=   818.516935 (dE=-0.104E+02)
 bond charge predicted
       N       E                     dE             d eps       ncg     rms          rms(c)
RMM:   1     0.810793331491E+03   -0.14780E+02   -0.11044E+03   673   0.539E+01    0.691E+00
RMM:   2     0.828726307420E+03    0.17933E+02    0.29715E+02   681   0.309E+01    0.518E+00
RMM:   3     0.819257849924E+03   -0.94685E+01   -0.24505E+01   966   0.600E+00    0.412E+00
RMM:   4     0.819195961685E+03   -0.61888E-01   -0.59699E+00   992   0.272E+00    0.294E+00
RMM:   5     0.819295529666E+03    0.99568E-01   -0.20655E+00  1015   0.161E+00    0.168E+00
RMM:   6     0.819255147706E+03   -0.40382E-01   -0.11287E+00  1011   0.110E+00    0.148E+00
RMM:   7     0.819263651688E+03    0.85040E-02   -0.43712E-01  1017   0.743E-01    0.997E-01
RMM:   8     0.819261371995E+03   -0.22797E-02   -0.24794E-01  1015   0.472E-01    0.748E-01
RMM:   9     0.819262859278E+03    0.14873E-02   -0.11215E-01  1012   0.345E-01    0.433E-01
RMM:  10     0.819257471893E+03   -0.53874E-02   -0.65992E-02  1027   0.234E-01    0.338E-01
RMM:  11     0.819254932413E+03   -0.25395E-02   -0.36862E-02  1016   0.172E-01    0.234E-01
RMM:  12     0.819253649494E+03   -0.12829E-02   -0.27866E-02  1025   0.123E-01    0.176E-01
RMM:  13     0.819252724617E+03   -0.92488E-03   -0.18517E-02   993   0.927E-02    0.105E-01
RMM:  14     0.819251479273E+03   -0.12453E-02   -0.15010E-02   923   0.686E-02    0.561E-02
RMM:  15     0.819250051067E+03   -0.14282E-02   -0.13827E-02   821   0.541E-02    0.406E-02
RMM:  16     0.819248746950E+03   -0.13041E-02   -0.12164E-02   593   0.454E-02    0.224E-02
RMM:  17     0.819247397924E+03   -0.13490E-02   -0.12447E-02   552   0.420E-02    0.159E-02
RMM:  18     0.819246099504E+03   -0.12984E-02   -0.11807E-02   529   0.380E-02    0.125E-02
RMM:  19     0.819244759449E+03   -0.13401E-02   -0.12042E-02   553   0.388E-02    0.972E-03
RMM:  20     0.819243404983E+03   -0.13545E-02   -0.11629E-02   511   0.347E-02    0.602E-03
RMM:  21     0.819242054868E+03   -0.13501E-02   -0.11775E-02   493   0.337E-02    0.660E-03
RMM:  22     0.819240780729E+03   -0.12741E-02   -0.11524E-02   458   0.308E-02    0.638E-03
RMM:  23     0.819239555038E+03   -0.12257E-02   -0.11441E-02   433   0.313E-02    0.576E-03
RMM:  24     0.819238337886E+03   -0.12172E-02   -0.11397E-02   487   0.325E-02    0.554E-03
RMM:  25     0.819237138645E+03   -0.11992E-02   -0.11290E-02   419   0.293E-02    0.539E-03
RMM:  26     0.819235969241E+03   -0.11694E-02   -0.11161E-02   391   0.296E-02    0.613E-03
RMM:  27     0.819234838954E+03   -0.11303E-02   -0.11071E-02   371   0.279E-02    0.990E-03
RMM:  28     0.819233632735E+03   -0.12062E-02   -0.11060E-02   380   0.274E-02    0.127E-02
RMM:  29     0.819232461999E+03   -0.11707E-02   -0.10847E-02   419   0.284E-02    0.141E-02
RMM:  30     0.819231293311E+03   -0.11687E-02   -0.10885E-02   418   0.280E-02    0.146E-02
RMM:  31     0.819230132164E+03   -0.11611E-02   -0.10796E-02   426   0.281E-02    0.134E-02
RMM:  32     0.819229009649E+03   -0.11225E-02   -0.10672E-02   403   0.276E-02    0.127E-02
RMM:  33     0.819227912416E+03   -0.10972E-02   -0.10629E-02   405   0.289E-02    0.131E-02
RMM:  34     0.819226844683E+03   -0.10677E-02   -0.10398E-02   428   0.301E-02    0.149E-02
RMM:  35     0.819225778297E+03   -0.10664E-02   -0.10407E-02   403   0.295E-02    0.178E-02
RMM:  36     0.819224717851E+03   -0.10604E-02   -0.10353E-02   357   0.282E-02    0.220E-02
RMM:  37     0.819223672121E+03   -0.10457E-02   -0.10209E-02   347   0.261E-02    0.274E-02
RMM:  38     0.819222628680E+03   -0.10434E-02   -0.10172E-02   309   0.248E-02    0.334E-02
RMM:  39     0.819221596328E+03   -0.10324E-02   -0.10074E-02   305   0.240E-02    0.405E-02
RMM:  40     0.819220570401E+03   -0.10259E-02   -0.10010E-02   268   0.230E-02    0.484E-02
RMM:  41     0.819219555509E+03   -0.10149E-02   -0.99044E-03   290   0.241E-02    0.568E-02
RMM:  42     0.819218542670E+03   -0.10128E-02   -0.98885E-03   282   0.237E-02    0.656E-02
RMM:  43     0.819217535808E+03   -0.10069E-02   -0.98272E-03   277   0.225E-02    0.751E-02
RMM:  44     0.819216538891E+03   -0.99692E-03   -0.97302E-03   276   0.226E-02    0.851E-02
RMM:  45     0.819215544669E+03   -0.99422E-03   -0.97025E-03   257   0.219E-02    0.955E-02
RMM:  46     0.819214558989E+03   -0.98568E-03   -0.96201E-03   261   0.223E-02    0.107E-01
RMM:  47     0.819213579759E+03   -0.97923E-03   -0.95665E-03   264   0.225E-02    0.118E-01
RMM:  48     0.819212601932E+03   -0.97783E-03   -0.95434E-03   273   0.231E-02    0.129E-01
RMM:  49     0.819211637333E+03   -0.96460E-03   -0.94130E-03   282   0.235E-02    0.141E-01
RMM:  50     0.819210677825E+03   -0.95951E-03   -0.93625E-03   265   0.233E-02    0.154E-01
RMM:  51     0.819209723395E+03   -0.95443E-03   -0.93157E-03   265   0.225E-02    0.167E-01
RMM:  52     0.819208771315E+03   -0.95208E-03   -0.92920E-03   263   0.222E-02    0.180E-01
RMM:  53     0.819207826353E+03   -0.94496E-03   -0.92268E-03   269   0.219E-02    0.194E-01
RMM:  54     0.819206888226E+03   -0.93813E-03   -0.91561E-03   280   0.229E-02    0.208E-01
RMM:  55     0.819205953335E+03   -0.93489E-03   -0.91264E-03   251   0.210E-02    0.222E-01
RMM:  56     0.819205029386E+03   -0.92395E-03   -0.90194E-03   249   0.215E-02    0.237E-01
RMM:  57     0.819204103547E+03   -0.92584E-03   -0.90260E-03   260   0.223E-02    0.253E-01
RMM:  58     0.819203181637E+03   -0.92191E-03   -0.90036E-03   273   0.227E-02    0.267E-01
RMM:  59     0.819202269625E+03   -0.91201E-03   -0.89346E-03   252   0.214E-02    0.283E-01
RMM:  60     0.819201361019E+03   -0.90861E-03   -0.88715E-03   264   0.223E-02
   3 F= 0.81920136E+03 E0= 0.81915504E+03  d E =-.969127E+01
 curvature:  -2.56 expect dE=-0.300E+01 dE for cont linesearch -0.175E+01
 ZBRENT: increasing intervall
 opt :  10.0000  next Energy=   817.814570 (dE=-0.111E+02)
 bond charge predicted
       N       E                     dE             d eps       ncg     rms          rms(c)
RMM:   1     0.734482264075E+03   -0.84720E+02   -0.43623E+03   687   0.106E+02    0.129E+01
RMM:   2     0.780561244310E+03    0.46079E+02    0.53308E+02   728   0.466E+01    0.100E+01
RMM:   3     0.814812873635E+03    0.34252E+02   -0.10201E+02   884   0.165E+01    0.852E+00
RMM:   4     0.817901054282E+03    0.30882E+01    0.92666E+00   847   0.945E+00    0.566E+00
RMM:   5     0.816223392143E+03   -0.16777E+01   -0.11083E+01   994   0.386E+00    0.441E+00
RMM:   6     0.816246227464E+03    0.22835E-01   -0.50750E+00  1004   0.247E+00    0.353E+00
RMM:   7     0.816262544415E+03    0.16317E-01   -0.27279E+00  1029   0.170E+00    0.251E+00
RMM:   8     0.816251717853E+03   -0.10827E-01   -0.16599E+00  1024   0.123E+00    0.178E+00
RMM:   9     0.816250613589E+03   -0.11043E-02   -0.73501E-01  1035   0.825E-01    0.138E+00
RMM:  10     0.816261360772E+03    0.10747E-01   -0.30604E-01  1036   0.577E-01    0.899E-01
RMM:  11     0.816254043747E+03   -0.73170E-02   -0.17418E-01  1039   0.432E-01    0.572E-01
RMM:  12     0.816250478274E+03   -0.35655E-02   -0.97474E-02  1039   0.303E-01    0.410E-01
RMM:  13     0.816248649076E+03   -0.18292E-02   -0.58165E-02  1036   0.206E-01    0.395E-01
RMM:  14     0.816251104140E+03    0.24551E-02   -0.22022E-02  1034   0.150E-01    0.251E-01
RMM:  15     0.816250822687E+03   -0.28145E-03   -0.14263E-02  1011   0.109E-01    0.184E-01
RMM:  16     0.816250682384E+03   -0.14030E-03   -0.10229E-02  1000   0.911E-02    0.913E-02
RMM:  17     0.816250074278E+03   -0.60811E-03   -0.89272E-03   970   0.708E-02    0.973E-02
RMM:  18     0.816249746320E+03   -0.32796E-03   -0.52236E-03   768   0.502E-02    0.750E-02
RMM:  19     0.816249327762E+03   -0.41856E-03   -0.41998E-03   604   0.410E-02    0.648E-02
WARNING in EDDRMM: call to ZHEGV failed, returncode =   6  3 94
RMM:  20     0.816248833307E+03   -0.49445E-03   -0.43047E-03   692   0.429E-02    0.334E-02
RMM:  21     0.816248236113E+03   -0.59719E-03   -0.37883E-03   622   0.408E-02    0.286E-02
RMM:  22     0.816247659083E+03   -0.57703E-03   -0.35119E-03   565   0.334E-02    0.335E-02
RMM:  23     0.816247188331E+03   -0.47075E-03   -0.30620E-03   529   0.319E-02    0.291E-02
RMM:  24     0.816246667682E+03   -0.52065E-03   -0.34330E-03   562   0.321E-02    0.161E-02
RMM:  25     0.816246043065E+03   -0.62462E-03   -0.33620E-03   534   0.303E-02    0.154E-02
RMM:  26     0.816245450629E+03   -0.59244E-03   -0.32674E-03   519   0.283E-02    0.255E-02
RMM:  27     0.816244955292E+03   -0.49534E-03   -0.30055E-03   522   0.293E-02    0.239E-02
RMM:  28     0.816244518653E+03   -0.43664E-03   -0.30804E-03   521   0.286E-02    0.143E-02
RMM:  29     0.816244105385E+03   -0.41327E-03   -0.30336E-03   488   0.280E-02    0.643E-03
RMM:  30     0.816243702473E+03   -0.40291E-03   -0.28585E-03   451   0.247E-02    0.940E-03
RMM:  31     0.816243302572E+03   -0.39990E-03   -0.28393E-03   443   0.245E-02    0.647E-03
RMM:  32     0.816242942032E+03   -0.36054E-03   -0.27952E-03   457   0.252E-02    0.508E-03
RMM:  33     0.816242609042E+03   -0.33299E-03   -0.27879E-03   472   0.272E-02    0.840E-03
RMM:  34     0.816242307597E+03   -0.30144E-03   -0.26919E-03   398   0.221E-02    0.825E-03
RMM:  35     0.816242031420E+03   -0.27618E-03   -0.26160E-03   380   0.216E-02    0.750E-03
RMM:  36     0.816241761787E+03   -0.26963E-03   -0.26217E-03   344   0.218E-02    0.809E-03
RMM:  37     0.816241501382E+03   -0.26040E-03   -0.24946E-03   327   0.204E-02    0.106E-02
RMM:  38     0.816241235069E+03   -0.26631E-03   -0.25718E-03   301   0.207E-02    0.121E-02
RMM:  39     0.816240984419E+03   -0.25065E-03   -0.24482E-03   307   0.191E-02    0.140E-02
RMM:  40     0.816240736310E+03   -0.24811E-03   -0.24316E-03   271   0.173E-02    0.162E-02
RMM:  41     0.816240485467E+03   -0.25084E-03   -0.24541E-03   273   0.167E-02    0.186E-02
RMM:  42     0.816240244732E+03   -0.24073E-03   -0.23542E-03   261   0.164E-02    0.212E-02
RMM:  43     0.816240006895E+03   -0.23784E-03   -0.23270E-03   250   0.162E-02    0.241E-02
RMM:  44     0.816239768494E+03   -0.23840E-03   -0.23333E-03   258   0.178E-02    0.272E-02
RMM:  45     0.816239529985E+03   -0.23851E-03   -0.23341E-03   265   0.171E-02    0.306E-02
RMM:  46     0.816239299721E+03   -0.23026E-03   -0.22400E-03   242   0.160E-02    0.341E-02
RMM:  47     0.816239067869E+03   -0.23185E-03   -0.22686E-03   272   0.168E-02    0.377E-02
RMM:  48     0.816238838002E+03   -0.22987E-03   -0.22388E-03   250   0.159E-02    0.414E-02
RMM:  49     0.816238613879E+03   -0.22412E-03   -0.21899E-03   256   0.158E-02    0.454E-02
RMM:  50     0.816238394881E+03   -0.21900E-03   -0.21405E-03   269   0.166E-02    0.494E-02
RMM:  51     0.816238176121E+03   -0.21876E-03   -0.21400E-03   251   0.164E-02    0.535E-02
RMM:  52     0.816237962645E+03   -0.21348E-03   -0.21397E-03   258   0.168E-02    0.575E-02
RMM:  53     0.816237747464E+03   -0.21518E-03   -0.20989E-03   245   0.155E-02    0.617E-02
RMM:  54     0.816237532323E+03   -0.21514E-03   -0.21062E-03   253   0.155E-02    0.660E-02
RMM:  55     0.816237321615E+03   -0.21071E-03   -0.20536E-03   247   0.154E-02    0.703E-02
RMM:  56     0.816237114021E+03   -0.20759E-03   -0.20305E-03   253   0.154E-02    0.747E-02
RMM:  57     0.816236911235E+03   -0.20279E-03   -0.20327E-03   250   0.154E-02    0.794E-02
RMM:  58     0.816236706650E+03   -0.20458E-03   -0.20014E-03   253   0.158E-02    0.839E-02
RMM:  59     0.816236506389E+03   -0.20026E-03   -0.19519E-03   239   0.156E-02    0.886E-02
RMM:  60     0.816236303039E+03   -0.20335E-03   -0.19702E-03   239   0.155E-02
   4 F= 0.81623630E+03 E0= 0.81619471E+03  d E =-.126563E+02
 curvature:  -2.04 expect dE=-0.441E+01 dE for cont linesearch -0.913E-01
 trial: gam= 0.78104 g(F)=  0.216E+01 g(S)=  0.000E+00 ort =-0.382E+00 (trialstep = 0.257E+01)
 search vector abs. value=  0.356E+01
 bond charge predicted
       N       E                     dE             d eps       ncg     rms          rms(c)
RMM:   1     0.805883938429E+03   -0.10353E+02   -0.86772E+02   655   0.442E+01    0.779E+00
RMM:   2     0.813125316064E+03    0.72414E+01    0.12249E+02   688   0.219E+01    0.796E+00
RMM:   3     0.812983111302E+03   -0.14220E+00   -0.11631E+01   963   0.446E+00    0.489E+00
RMM:   4     0.813498207986E+03    0.51510E+00   -0.37802E+00   986   0.214E+00    0.347E+00
RMM:   5     0.813691186516E+03    0.19298E+00   -0.36091E+00  1028   0.160E+00    0.220E+00
RMM:   6     0.813637031933E+03   -0.54155E-01   -0.19074E+00  1035   0.120E+00    0.146E+00
RMM:   7     0.813635845235E+03   -0.11867E-02   -0.55012E-01  1032   0.717E-01    0.126E+00
RMM:   8     0.813667540937E+03    0.31696E-01   -0.20215E-01  1030   0.487E-01    0.816E-01
RMM:   9     0.813658541709E+03   -0.89992E-02   -0.21057E-01  1037   0.392E-01    0.793E-01
RMM:  10     0.813664894070E+03    0.63524E-02   -0.70186E-02  1023   0.261E-01    0.518E-01
RMM:  11     0.813666935837E+03    0.20418E-02   -0.45583E-02  1029   0.192E-01    0.337E-01
RMM:  12     0.813666955568E+03    0.19732E-04   -0.27507E-02  1018   0.150E-01    0.223E-01
RMM:  13     0.813667523214E+03    0.56765E-03   -0.14997E-02  1021   0.108E-01    0.185E-01
RMM:  14     0.813667692451E+03    0.16924E-03   -0.71153E-03   960   0.766E-02    0.154E-01
RMM:  15     0.813667763354E+03    0.70904E-04   -0.32414E-03   781   0.493E-02    0.124E-01
RMM:  16     0.813667648170E+03   -0.11518E-03   -0.26622E-03   691   0.423E-02    0.104E-01
RMM:  17     0.813667522214E+03   -0.12596E-03   -0.20218E-03   657   0.387E-02    0.750E-02
RMM:  18     0.813667185891E+03   -0.33632E-03   -0.31016E-03   704   0.446E-02    0.294E-02
RMM:  19     0.813666858170E+03   -0.32772E-03   -0.24106E-03   604   0.333E-02    0.422E-02
RMM:  20     0.813666662762E+03   -0.19541E-03   -0.18378E-03   552   0.291E-02    0.508E-02
RMM:  21     0.813666510214E+03   -0.15255E-03   -0.15814E-03   496   0.270E-02    0.584E-02
RMM:  22     0.813666311918E+03   -0.19830E-03   -0.17847E-03   484   0.269E-02    0.774E-02
RMM:  23     0.813666152331E+03   -0.15959E-03   -0.16435E-03   498   0.273E-02    0.714E-02
RMM:  24     0.813665923907E+03   -0.22842E-03   -0.21772E-03   588   0.326E-02    0.402E-02
RMM:  25     0.813665758529E+03   -0.16538E-03   -0.13944E-03   485   0.259E-02    0.368E-02
RMM:  26     0.813665611572E+03   -0.14696E-03   -0.13983E-03   402   0.230E-02    0.377E-02
RMM:  27     0.813665474657E+03   -0.13692E-03   -0.13266E-03   393   0.233E-02    0.402E-02
RMM:  28     0.813665329706E+03   -0.14495E-03   -0.13775E-03   395   0.244E-02    0.434E-02
RMM:  29     0.813665186983E+03   -0.14272E-03   -0.13948E-03   373   0.229E-02    0.475E-02
RMM:  30     0.813665043318E+03   -0.14367E-03   -0.13655E-03   323   0.179E-02    0.524E-02
RMM:  31     0.813664911846E+03   -0.13147E-03   -0.12860E-03   275   0.146E-02    0.569E-02
RMM:  32     0.813664782699E+03   -0.12915E-03   -0.12866E-03   258   0.155E-02    0.610E-02
RMM:  33     0.813664659069E+03   -0.12363E-03   -0.12413E-03   266   0.163E-02    0.648E-02
RMM:  34     0.813664528852E+03   -0.13022E-03   -0.12482E-03   266   0.167E-02    0.697E-02
RMM:  35     0.813664399585E+03   -0.12927E-03   -0.12421E-03   291   0.178E-02    0.756E-02
RMM:  36     0.813664270658E+03   -0.12893E-03   -0.12641E-03   278   0.174E-02    0.810E-02
RMM:  37     0.813664144701E+03   -0.12596E-03   -0.12277E-03   268   0.159E-02    0.861E-02
RMM:  38     0.813664020879E+03   -0.12382E-03   -0.11868E-03   262   0.159E-02    0.907E-02
RMM:  39     0.813663891592E+03   -0.12929E-03   -0.12158E-03   272   0.160E-02    0.944E-02
RMM:  40     0.813663759962E+03   -0.13163E-03   -0.11505E-03   348   0.175E-02    0.954E-02
RMM:  41     0.813663576907E+03   -0.18305E-03   -0.12637E-03   448   0.224E-02    0.864E-02
RMM:  42     0.813663443099E+03   -0.13381E-03   -0.12352E-03   421   0.258E-02    0.797E-02
RMM:  43     0.813663321865E+03   -0.12123E-03   -0.11717E-03   453   0.242E-02    0.782E-02
RMM:  44     0.813663205354E+03   -0.11651E-03   -0.11157E-03   375   0.195E-02    0.763E-02
RMM:  45     0.813663071565E+03   -0.13379E-03   -0.11572E-03   363   0.218E-02    0.753E-02
RMM:  46     0.813662957723E+03   -0.11384E-03   -0.11029E-03   423   0.225E-02    0.749E-02
RMM:  47     0.813662856254E+03   -0.10147E-03   -0.11189E-03   364   0.202E-02    0.716E-02
RMM:  48     0.813662709895E+03   -0.14636E-03   -0.11646E-03   318   0.172E-02    0.759E-02
RMM:  49     0.813662590989E+03   -0.11891E-03   -0.10816E-03   319   0.177E-02    0.794E-02
RMM:  50     0.813662477804E+03   -0.11318E-03   -0.10941E-03   300   0.172E-02    0.826E-02
RMM:  51     0.813662369031E+03   -0.10877E-03   -0.10616E-03   296   0.177E-02    0.851E-02
RMM:  52     0.813662292233E+03   -0.76798E-04   -0.10745E-03   292   0.167E-02    0.802E-02
RMM:  53     0.813662197988E+03   -0.94246E-04   -0.95409E-04   298   0.179E-02
   5 F= 0.81366220E+03 E0= 0.81360092E+03  d E =-.257411E+01
 trial-energy change:   -2.574105  1 .order   -2.689472   -4.790057   -0.588886
 step:   3.0131(harm=  2.9269)  dis= 0.15987  next Energy=   813.611635 (dE=-0.262E+01)
 bond charge predicted
       N       E                     dE             d eps       ncg     rms          rms(c)
RMM:   1     0.813284186026E+03   -0.37811E+00   -0.27979E+01   643   0.793E+00    0.875E-01
RMM:   2     0.813647140870E+03    0.36295E+00    0.21395E+00   775   0.266E+00    0.542E-01
RMM:   3     0.813604142399E+03   -0.42998E-01   -0.39780E-01   993   0.648E-01    0.628E-01
RMM:   4     0.813610002395E+03    0.58600E-02   -0.91718E-02  1016   0.327E-01    0.321E-01
RMM:   5     0.813610713044E+03    0.71065E-03   -0.41276E-02  1025   0.213E-01    0.217E-01
RMM:   6     0.813610231405E+03   -0.48164E-03   -0.17822E-02  1020   0.142E-01    0.165E-01
RMM:   7     0.813610191906E+03   -0.39499E-04   -0.82963E-03  1016   0.930E-02    0.113E-01
RMM:   8     0.813609931072E+03   -0.26083E-03   -0.57616E-03   942   0.684E-02    0.111E-01
RMM:   9     0.813610097843E+03    0.16677E-03   -0.27364E-03   896   0.530E-02    0.630E-02
RMM:  10     0.813610051793E+03   -0.46050E-04   -0.17410E-03   707   0.393E-02    0.405E-02
RMM:  11     0.813609918988E+03   -0.13281E-03   -0.16748E-03   665   0.350E-02    0.328E-02
RMM:  12     0.813609767145E+03   -0.15184E-03   -0.12734E-03   528   0.310E-02    0.239E-02
RMM:  13     0.813609654996E+03   -0.11215E-03   -0.95930E-04   493   0.286E-02    0.230E-02
RMM:  14     0.813609555714E+03   -0.99282E-04   -0.93071E-04   488   0.262E-02
   6 F= 0.81360956E+03 E0= 0.81354562E+03  d E =-.262675E+01
 curvature:  -2.63 expect dE=-0.300E+00 dE for cont linesearch -0.112E-06
 trial: gam=-0.09793 g(F)=  0.114E+00 g(S)=  0.000E+00 ort = 0.389E-03 (trialstep = 0.266E+01)
 search vector abs. value=  0.148E+00
 bond charge predicted
       N       E                     dE             d eps       ncg     rms          rms(c)
RMM:   1     0.813003527464E+03   -0.60613E+00   -0.39559E+01   662   0.102E+01    0.114E+00
RMM:   2     0.813400937630E+03    0.39741E+00    0.27029E+00   796   0.325E+00    0.809E-01
RMM:   3     0.813352419689E+03   -0.48518E-01   -0.52359E-01   999   0.896E-01    0.770E-01
RMM:   4     0.813355713958E+03    0.32943E-02   -0.15369E-01  1020   0.444E-01    0.427E-01
RMM:   5     0.813349991761E+03   -0.57222E-02   -0.93751E-02  1039   0.309E-01    0.442E-01
RMM:   6     0.813352382082E+03    0.23903E-02   -0.39441E-02  1021   0.222E-01    0.265E-01
RMM:   7     0.813352619961E+03    0.23788E-03   -0.20819E-02  1039   0.146E-01    0.144E-01
RMM:   8     0.813352192554E+03   -0.42741E-03   -0.88073E-03  1021   0.929E-02    0.128E-01
RMM:   9     0.813352232675E+03    0.40121E-04   -0.44969E-03   956   0.627E-02    0.888E-02
RMM:  10     0.813352159934E+03   -0.72741E-04   -0.29712E-03   917   0.506E-02    0.666E-02
RMM:  11     0.813352164859E+03    0.49251E-05   -0.19207E-03   721   0.422E-02    0.384E-02
RMM:  12     0.813352086212E+03   -0.78647E-04   -0.13390E-03   539   0.312E-02    0.342E-02
RMM:  13     0.813352043052E+03   -0.43160E-04   -0.11298E-03   593   0.319E-02    0.245E-02
RMM:  14     0.813351979448E+03   -0.63604E-04   -0.92367E-04   527   0.312E-02
   7 F= 0.81335198E+03 E0= 0.81329413E+03  d E =-.257576E+00
 trial-energy change:   -0.257576  1 .order   -0.255525   -0.303084   -0.207967
 step:   6.9891(harm=  8.4640)  dis= 0.05109  next Energy=   813.173461 (dE=-0.436E+00)
 bond charge predicted
       N       E                     dE             d eps       ncg     rms          rms(c)
RMM:   1     0.812243255285E+03   -0.11088E+01   -0.10523E+02   665   0.166E+01    0.187E+00
RMM:   2     0.813269417685E+03    0.10262E+01    0.66262E+00   791   0.522E+00    0.141E+00
RMM:   3     0.813153226130E+03   -0.11619E+00   -0.14195E+00   991   0.146E+00    0.117E+00
RMM:   4     0.813152965930E+03   -0.26020E-03   -0.42043E-01  1036   0.714E-01    0.726E-01
RMM:   5     0.813136537337E+03   -0.16429E-01   -0.24061E-01  1043   0.496E-01    0.737E-01
RMM:   6     0.813141718786E+03    0.51814E-02   -0.11074E-01  1034   0.358E-01    0.475E-01
RMM:   7     0.813144447016E+03    0.27282E-02   -0.55814E-02  1039   0.242E-01    0.229E-01
RMM:   8     0.813143116536E+03   -0.13305E-02   -0.24927E-02  1047   0.155E-01    0.187E-01
RMM:   9     0.813142772925E+03   -0.34361E-03   -0.11065E-02  1030   0.100E-01    0.153E-01
RMM:  10     0.813142756887E+03   -0.16037E-04   -0.66714E-03  1000   0.748E-02    0.107E-01
RMM:  11     0.813142653254E+03   -0.10363E-03   -0.40300E-03   989   0.615E-02    0.685E-02
RMM:  12     0.813142534150E+03   -0.11910E-03   -0.25847E-03   677   0.398E-02    0.518E-02
RMM:  13     0.813142450535E+03   -0.83614E-04   -0.18795E-03   588   0.356E-02    0.402E-02
RMM:  14     0.813142360023E+03   -0.90512E-04   -0.17726E-03   651   0.375E-02    0.224E-02
RMM:  15     0.813142216482E+03   -0.14354E-03   -0.15065E-03   565   0.323E-02    0.184E-02
RMM:  16     0.813142102242E+03   -0.11424E-03   -0.11061E-03   462   0.273E-02    0.150E-02
RMM:  17     0.813141975737E+03   -0.12650E-03   -0.12157E-03   455   0.230E-02    0.118E-02
RMM:  18     0.813141856506E+03   -0.11923E-03   -0.11276E-03   491   0.259E-02    0.931E-03
RMM:  19     0.813141724635E+03   -0.13187E-03   -0.11917E-03   496   0.259E-02    0.404E-03
RMM:  20     0.813141597558E+03   -0.12708E-03   -0.11539E-03   434   0.216E-02    0.394E-03
RMM:  21     0.813141478355E+03   -0.11920E-03   -0.11134E-03   406   0.207E-02    0.561E-03
RMM:  22     0.813141368851E+03   -0.10950E-03   -0.10449E-03   390   0.212E-02    0.647E-03
RMM:  23     0.813141264959E+03   -0.10389E-03   -0.10080E-03   407   0.224E-02    0.735E-03
RMM:  24     0.813141155535E+03   -0.10942E-03   -0.10659E-03   379   0.210E-02    0.932E-03
RMM:  25     0.813141056124E+03   -0.99411E-04   -0.94933E-04   337   0.179E-02
   8 F= 0.81314106E+03 E0= 0.81309445E+03  d E =-.468500E+00
 curvature:  -5.14 expect dE=-0.840E-01 dE for cont linesearch -0.965E-02
 ZBRENT: extrapolating
 opt :   8.1615  next Energy=   813.131283 (dE=-0.478E+00)
 bond charge predicted
       N       E                     dE             d eps       ncg     rms          rms(c)
RMM:   1     0.813066431395E+03   -0.74724E-01   -0.76918E+00   666   0.450E+00    0.521E-01
RMM:   2     0.813136813572E+03    0.70382E-01    0.45459E-01   823   0.136E+00    0.387E-01
RMM:   3     0.813130108882E+03   -0.67047E-02   -0.91409E-02  1001   0.385E-01    0.340E-01
RMM:   4     0.813130804083E+03    0.69520E-03   -0.30567E-02  1016   0.199E-01    0.187E-01
RMM:   5     0.813129525808E+03   -0.12783E-02   -0.19671E-02  1035   0.139E-01    0.197E-01
RMM:   6     0.813130145978E+03    0.62017E-03   -0.83635E-03  1017   0.998E-02    0.106E-01
RMM:   7     0.813130156267E+03    0.10289E-04   -0.48412E-03  1004   0.653E-02    0.592E-02
RMM:   8     0.813130056767E+03   -0.99499E-04   -0.23246E-03   747   0.439E-02    0.470E-02
RMM:   9     0.813129948754E+03   -0.10801E-03   -0.17652E-03   568   0.340E-02    0.315E-02
RMM:  10     0.813129901926E+03   -0.46828E-04   -0.13498E-03   601   0.365E-02    0.197E-02
RMM:  11     0.813129790274E+03   -0.11165E-03   -0.13493E-03   557   0.330E-02    0.149E-02
RMM:  12     0.813129691583E+03   -0.98692E-04   -0.10220E-03   461   0.279E-02    0.128E-02
RMM:  13     0.813129593351E+03   -0.98232E-04   -0.10051E-03   407   0.229E-02    0.836E-03
RMM:  14     0.813129494548E+03   -0.98802E-04   -0.97572E-04   458   0.241E-02
   9 F= 0.81312949E+03 E0= 0.81308611E+03  d E =-.480061E+00
 curvature:  -5.21 expect dE=-0.107E+00 dE for cont linesearch -0.142E-05
 trial: gam= 0.22535 g(F)=  0.206E-01 g(S)=  0.000E+00 ort =-0.201E-03 (trialstep = 0.376E+01)
 search vector abs. value=  0.280E-01
 bond charge predicted
       N       E                     dE             d eps       ncg     rms          rms(c)
RMM:   1     0.812845019944E+03   -0.28457E+00   -0.15627E+01   669   0.640E+00    0.845E-01
RMM:   2     0.813069303247E+03    0.22428E+00    0.17005E+00   819   0.212E+00    0.653E-01
RMM:   3     0.813059725464E+03   -0.95778E-02   -0.18320E-01  1013   0.565E-01    0.554E-01
RMM:   4     0.813061286381E+03    0.15609E-02   -0.67070E-02  1039   0.298E-01    0.342E-01
RMM:   5     0.813059484614E+03   -0.18018E-02   -0.42667E-02  1040   0.208E-01    0.324E-01
RMM:   6     0.813060600951E+03    0.11163E-02   -0.21273E-02  1038   0.164E-01    0.220E-01
RMM:   7     0.813061317625E+03    0.71667E-03   -0.11911E-02  1043   0.109E-01    0.919E-02
RMM:   8     0.813060939015E+03   -0.37861E-03   -0.60921E-03   993   0.714E-02    0.899E-02
RMM:   9     0.813060830575E+03   -0.10844E-03   -0.36226E-03   773   0.476E-02    0.633E-02
RMM:  10     0.813060676712E+03   -0.15386E-03   -0.24045E-03   610   0.384E-02    0.555E-02
RMM:  11     0.813060526513E+03   -0.15020E-03   -0.22833E-03   592   0.393E-02    0.386E-02
RMM:  12     0.813060358399E+03   -0.16811E-03   -0.20588E-03   561   0.343E-02    0.251E-02
RMM:  13     0.813060202592E+03   -0.15581E-03   -0.16987E-03   542   0.340E-02    0.203E-02
RMM:  14     0.813060056135E+03   -0.14646E-03   -0.15707E-03   459   0.276E-02    0.115E-02
RMM:  15     0.813059901320E+03   -0.15481E-03   -0.15323E-03   490   0.300E-02    0.109E-02
RMM:  16     0.813059757377E+03   -0.14394E-03   -0.14042E-03   465   0.257E-02    0.116E-02
RMM:  17     0.813059608258E+03   -0.14912E-03   -0.14620E-03   460   0.254E-02    0.119E-02
RMM:  18     0.813059475485E+03   -0.13277E-03   -0.12989E-03   447   0.229E-02    0.106E-02
RMM:  19     0.813059340338E+03   -0.13515E-03   -0.13206E-03   417   0.225E-02    0.751E-03
RMM:  20     0.813059201885E+03   -0.13845E-03   -0.13385E-03   437   0.245E-02    0.580E-03
RMM:  21     0.813059068581E+03   -0.13330E-03   -0.12807E-03   406   0.211E-02    0.660E-03
RMM:  22     0.813058942201E+03   -0.12638E-03   -0.12270E-03   398   0.206E-02    0.757E-03
RMM:  23     0.813058818606E+03   -0.12360E-03   -0.12117E-03   353   0.192E-02    0.853E-03
RMM:  24     0.813058698326E+03   -0.12028E-03   -0.11758E-03   350   0.202E-02    0.111E-02
RMM:  25     0.813058577773E+03   -0.12055E-03   -0.11781E-03   328   0.193E-02    0.136E-02
RMM:  26     0.813058467806E+03   -0.10997E-03   -0.10720E-03   312   0.183E-02    0.159E-02
RMM:  27     0.813058355274E+03   -0.11253E-03   -0.11027E-03   277   0.169E-02    0.183E-02
RMM:  28     0.813058244973E+03   -0.11030E-03   -0.10819E-03   280   0.160E-02    0.208E-02
RMM:  29     0.813058136875E+03   -0.10810E-03   -0.10584E-03   270   0.159E-02    0.235E-02
RMM:  30     0.813058031388E+03   -0.10549E-03   -0.10346E-03   273   0.165E-02    0.263E-02
RMM:  31     0.813057925401E+03   -0.10599E-03   -0.10393E-03   269   0.160E-02    0.292E-02
RMM:  32     0.813057821681E+03   -0.10372E-03   -0.10171E-03   268   0.153E-02    0.321E-02
RMM:  33     0.813057723477E+03   -0.98204E-04   -0.96016E-04   265   0.151E-02
  10 F= 0.81305772E+03 E0= 0.81302387E+03  d E =-.717711E-01
 trial-energy change:   -0.071771  1 .order   -0.066862   -0.077283   -0.056442
 step:  13.9331(harm= 13.9331)  dis= 0.04675  next Energy=   812.986203 (dE=-0.143E+00)
 bond charge predicted
       N       E                     dE             d eps       ncg     rms          rms(c)
RMM:   1     0.811070643393E+03   -0.19872E+01   -0.11788E+02   662   0.173E+01    0.236E+00
RMM:   2     0.813043545453E+03    0.19729E+01    0.15307E+01   756   0.640E+00    0.192E+00
RMM:   3     0.812978997355E+03   -0.64548E-01   -0.15335E+00  1013   0.161E+00    0.156E+00
RMM:   4     0.812990782085E+03    0.11785E-01   -0.53254E-01  1040   0.812E-01    0.101E+00
RMM:   5     0.812980406750E+03   -0.10375E-01   -0.27606E-01  1035   0.552E-01    0.874E-01
RMM:   6     0.812981994599E+03    0.15878E-02   -0.15791E-01  1039   0.441E-01    0.666E-01
RMM:   7     0.812989283643E+03    0.72890E-02   -0.84397E-02  1043   0.302E-01    0.285E-01
RMM:   8     0.812986740853E+03   -0.25428E-02   -0.45314E-02  1041   0.202E-01    0.282E-01
RMM:   9     0.812987560710E+03    0.81986E-03   -0.20097E-02  1044   0.129E-01    0.177E-01
RMM:  10     0.812987004782E+03   -0.55593E-03   -0.13021E-02  1021   0.895E-02    0.142E-01
RMM:  11     0.812986552085E+03   -0.45270E-03   -0.88499E-03   977   0.669E-02    0.918E-02
RMM:  12     0.812985985899E+03   -0.56619E-03   -0.74069E-03   878   0.533E-02    0.603E-02
RMM:  13     0.812985527632E+03   -0.45827E-03   -0.59559E-03   742   0.467E-02    0.317E-02
RMM:  14     0.812985010720E+03   -0.51691E-03   -0.51705E-03   523   0.378E-02    0.318E-02
RMM:  15     0.812984553281E+03   -0.45744E-03   -0.46256E-03   512   0.362E-02    0.280E-02
RMM:  16     0.812984106892E+03   -0.44639E-03   -0.44365E-03   563   0.364E-02    0.234E-02
RMM:  17     0.812983678801E+03   -0.42809E-03   -0.41731E-03   532   0.340E-02    0.166E-02
RMM:  18     0.812983235461E+03   -0.44334E-03   -0.41697E-03   476   0.289E-02    0.104E-02
RMM:  19     0.812982827397E+03   -0.40806E-03   -0.38481E-03   456   0.278E-02    0.126E-02
RMM:  20     0.812982438790E+03   -0.38861E-03   -0.37451E-03   478   0.295E-02    0.143E-02
RMM:  21     0.812982077801E+03   -0.36099E-03   -0.35164E-03   454   0.268E-02    0.149E-02
RMM:  22     0.812981722197E+03   -0.35560E-03   -0.34779E-03   457   0.270E-02    0.155E-02
RMM:  23     0.812981380323E+03   -0.34187E-03   -0.33422E-03   399   0.237E-02    0.177E-02
RMM:  24     0.812981053333E+03   -0.32699E-03   -0.31865E-03   379   0.231E-02    0.204E-02
RMM:  25     0.812980732671E+03   -0.32066E-03   -0.31415E-03   366   0.235E-02    0.224E-02
RMM:  26     0.812980427246E+03   -0.30542E-03   -0.29843E-03   344   0.214E-02    0.253E-02
RMM:  27     0.812980127896E+03   -0.29935E-03   -0.29291E-03   331   0.219E-02    0.276E-02
RMM:  28     0.812979839673E+03   -0.28822E-03   -0.28155E-03   329   0.212E-02    0.308E-02
RMM:  29     0.812979563204E+03   -0.27647E-03   -0.27020E-03   283   0.190E-02    0.344E-02
RMM:  30     0.812979292982E+03   -0.27022E-03   -0.26459E-03   279   0.190E-02    0.378E-02
RMM:  31     0.812979027859E+03   -0.26512E-03   -0.25921E-03   292   0.192E-02    0.417E-02
RMM:  32     0.812978771683E+03   -0.25618E-03   -0.25051E-03   275   0.175E-02    0.460E-02
RMM:  33     0.812978523824E+03   -0.24786E-03   -0.24227E-03   277   0.180E-02    0.510E-02
RMM:  34     0.812978284819E+03   -0.23901E-03   -0.23379E-03   267   0.179E-02    0.563E-02
RMM:  35     0.812978051395E+03   -0.23342E-03   -0.22833E-03   267   0.186E-02    0.616E-02
RMM:  36     0.812977821083E+03   -0.23031E-03   -0.22551E-03   285   0.189E-02    0.670E-02
RMM:  37     0.812977596825E+03   -0.22426E-03   -0.21865E-03   281   0.182E-02    0.727E-02
RMM:  38     0.812977381266E+03   -0.21556E-03   -0.20979E-03   266   0.171E-02    0.788E-02
RMM:  39     0.812977178974E+03   -0.20229E-03   -0.19748E-03   277   0.180E-02    0.852E-02
RMM:  40     0.812976973957E+03   -0.20502E-03   -0.20035E-03   264   0.179E-02    0.919E-02
RMM:  41     0.812976773634E+03   -0.20032E-03   -0.19572E-03   261   0.183E-02    0.986E-02
RMM:  42     0.812976585001E+03   -0.18863E-03   -0.18403E-03   270   0.182E-02    0.105E-01
RMM:  43     0.812976395808E+03   -0.18919E-03   -0.18518E-03   255   0.179E-02    0.112E-01
RMM:  44     0.812976209299E+03   -0.18651E-03   -0.18250E-03   261   0.176E-02    0.119E-01
RMM:  45     0.812976028649E+03   -0.18065E-03   -0.17673E-03   263   0.174E-02    0.126E-01
RMM:  46     0.812975856208E+03   -0.17244E-03   -0.16995E-03   267   0.175E-02    0.133E-01
RMM:  47     0.812975689911E+03   -0.16630E-03   -0.16658E-03   274   0.175E-02    0.140E-01
RMM:  48     0.812975520417E+03   -0.16949E-03   -0.16707E-03   295   0.183E-02    0.146E-01
RMM:  49     0.812975357040E+03   -0.16338E-03   -0.16313E-03   334   0.177E-02    0.152E-01
RMM:  50     0.812975192649E+03   -0.16439E-03   -0.16312E-03   384   0.201E-02    0.158E-01
RMM:  51     0.812975019699E+03   -0.17295E-03   -0.16590E-03   404   0.230E-02    0.163E-01
RMM:  52     0.812974855159E+03   -0.16454E-03   -0.15771E-03   405   0.232E-02    0.169E-01
RMM:  53     0.812974694758E+03   -0.16040E-03   -0.15689E-03   409   0.260E-02    0.175E-01
RMM:  54     0.812974548883E+03   -0.14588E-03   -0.14253E-03   394   0.232E-02    0.182E-01
RMM:  55     0.812974395257E+03   -0.15363E-03   -0.14936E-03   361   0.220E-02    0.189E-01
RMM:  56     0.812974244170E+03   -0.15109E-03   -0.14797E-03   332   0.204E-02    0.197E-01
RMM:  57     0.812974110322E+03   -0.13385E-03   -0.12921E-03   328   0.197E-02    0.204E-01
RMM:  58     0.812973966296E+03   -0.14403E-03   -0.14142E-03   319   0.199E-02    0.212E-01
RMM:  59     0.812973830454E+03   -0.13584E-03   -0.13301E-03   279   0.176E-02    0.220E-01
RMM:  60     0.812973696815E+03   -0.13364E-03   -0.13097E-03   293   0.184E-02
  11 F= 0.81297370E+03 E0= 0.81295796E+03  d E =-.155798E+00
 curvature:  -9.50 expect dE=-0.406E+00 dE for cont linesearch -0.895E-03
 trial: gam= 2.10805 g(F)=  0.428E-01 g(S)=  0.000E+00 ort =-0.163E-02 (trialstep = 0.101E+01)
 search vector abs. value=  0.161E+00
 bond charge predicted
       N       E                     dE             d eps       ncg     rms          rms(c)
RMM:   1     0.812845746364E+03   -0.12808E+00   -0.63547E+00   671   0.404E+00    0.587E-01
RMM:   2     0.812935038579E+03    0.89292E-01    0.70877E-01   838   0.135E+00    0.497E-01
RMM:   3     0.812933256074E+03   -0.17825E-02   -0.81848E-02  1005   0.359E-01    0.356E-01
RMM:   4     0.812933244770E+03   -0.11304E-04   -0.33465E-02  1036   0.197E-01    0.249E-01
RMM:   5     0.812933481911E+03    0.23714E-03   -0.17393E-02  1024   0.139E-01    0.177E-01
RMM:   6     0.812933133180E+03   -0.34873E-03   -0.12477E-02  1016   0.110E-01    0.168E-01
RMM:   7     0.812933642387E+03    0.50921E-03   -0.57983E-03   989   0.735E-02    0.857E-02
RMM:   8     0.812933529915E+03   -0.11247E-03   -0.38827E-03   868   0.492E-02    0.363E-02
RMM:   9     0.812933300750E+03   -0.22916E-03   -0.26855E-03   669   0.371E-02    0.268E-02
RMM:  10     0.812933097502E+03   -0.20325E-03   -0.22310E-03   517   0.329E-02    0.213E-02
RMM:  11     0.812932901593E+03   -0.19591E-03   -0.19702E-03   537   0.319E-02    0.226E-02
RMM:  12     0.812932730091E+03   -0.17150E-03   -0.17712E-03   522   0.310E-02    0.190E-02
RMM:  13     0.812932557059E+03   -0.17303E-03   -0.17258E-03   502   0.282E-02    0.162E-02
RMM:  14     0.812932388759E+03   -0.16830E-03   -0.16552E-03   468   0.239E-02    0.891E-03
RMM:  15     0.812932210313E+03   -0.17845E-03   -0.16853E-03   454   0.231E-02    0.688E-03
RMM:  16     0.812932049602E+03   -0.16071E-03   -0.15195E-03   456   0.248E-02    0.834E-03
RMM:  17     0.812931894415E+03   -0.15519E-03   -0.15197E-03   422   0.243E-02    0.793E-03
RMM:  18     0.812931743590E+03   -0.15083E-03   -0.14762E-03   381   0.231E-02    0.841E-03
[...]
RMM:   3     0.802210093086E+03   -0.65818E-04   -0.83712E-04   679   0.466E-02
  66 F= 0.80221009E+03 E0= 0.80217455E+03  d E =-.291645E-03
 ZBRENT: can't locate minimum, use default step
 trial-energy change:   -0.000292  1 .order   -0.000119   -0.000134   -0.000104
 step:  12.8969(harm= 14.3017)  dis= 0.00358  next Energy=   802.210088 (dE=-0.296E-03)
 bond charge predicted
       N       E                     dE             d eps       ncg     rms          rms(c)
RMM:   1     0.802204943022E+03   -0.52159E-02   -0.33938E-01   670   0.972E-01    0.131E-01
RMM:   2     0.802209613927E+03    0.46709E-02    0.36463E-02   784   0.337E-01    0.879E-02
WARNING in EDDRMM: call to ZHEGV failed, returncode =   6  3 87
RMM:   3     0.802209358837E+03   -0.25509E-03   -0.43715E-03   894   0.981E-02    0.632E-02
RMM:   4     0.802209328818E+03   -0.30019E-04   -0.20123E-03   838   0.594E-02    0.447E-02
RMM:   5     0.802209307673E+03   -0.21146E-04   -0.12782E-03   764   0.448E-02    0.363E-02
WARNING in EDDRMM: call to ZHEGV failed, returncode =   6  3 86
RMM:   6     0.802209314511E+03    0.68384E-05   -0.61928E-04   587   0.351E-02
  67 F= 0.80220931E+03 E0= 0.80217362E+03  d E =-.107022E-02
 curvature: -17.34 expect dE=-0.542E-03 dE for cont linesearch -0.216E-03
 ZBRENT: increasing intervall
 opt :  32.2422  next Energy=   802.208554 (dE=-0.183E-02)
 bond charge predicted
       N       E                     dE             d eps       ncg     rms          rms(c)
RMM:   1     0.802190719701E+03   -0.18588E-01   -0.13285E+00   659   0.193E+00    0.254E-01
RMM:   2     0.802209141268E+03    0.18422E-01    0.14162E-01   779   0.651E-01    0.161E-01
RMM:   3     0.802208400260E+03   -0.74101E-03   -0.14080E-02   966   0.178E-01    0.119E-01
RMM:   4     0.802208221879E+03   -0.17838E-03   -0.69350E-03   958   0.101E-01    0.878E-02
RMM:   5     0.802208192375E+03   -0.29504E-04   -0.41855E-03   977   0.758E-02    0.833E-02
RMM:   6     0.802208325133E+03    0.13276E-03   -0.19045E-03   891   0.523E-02    0.321E-02
RMM:   7     0.802208262215E+03   -0.62918E-04   -0.94078E-04   623   0.352E-02
  68 F= 0.80220826E+03 E0= 0.80217225E+03  d E =-.212252E-02
 curvature: -60.92 expect dE=-0.879E-02 dE for cont linesearch -0.875E-04
 ZBRENT: increasing intervall
 opt :  70.9329  next Energy=   802.208706 (dE=-0.168E-02)
 bond charge predicted
       N       E                     dE             d eps       ncg     rms          rms(c)
RMM:   1     0.802139563640E+03   -0.68761E-01   -0.52727E+00   658   0.386E+00    0.505E-01
RMM:   2     0.802211018608E+03    0.71455E-01    0.54081E-01   779   0.127E+00    0.333E-01
RMM:   3     0.802208780991E+03   -0.22376E-02   -0.54284E-02   986   0.355E-01    0.247E-01
RMM:   4     0.802208023367E+03   -0.75762E-03   -0.25933E-02  1007   0.192E-01    0.171E-01
RMM:   5     0.802207455885E+03   -0.56748E-03   -0.17861E-02  1019   0.142E-01    0.182E-01
RMM:   6     0.802208208378E+03    0.75249E-03   -0.72456E-03   992   0.103E-01    0.761E-02
RMM:   7     0.802208036979E+03   -0.17140E-03   -0.35559E-03   977   0.632E-02    0.421E-02
RMM:   8     0.802207916586E+03   -0.12039E-03   -0.17578E-03   741   0.418E-02    0.401E-02
RMM:   9     0.802207875134E+03   -0.41452E-04   -0.72910E-04   521   0.325E-02
  69 F= 0.80220788E+03 E0= 0.80217123E+03  d E =-.250960E-02
 curvature: 309.21 expect dE= 0.237E+00 dE for cont linesearch  0.667E-02
 ZBRENT: bracketing found
 ZBRENT: interpolating
 opt :  40.1803  next Energy=   802.208214 (dE=-0.217E-02)
 bond charge predicted
       N       E                     dE             d eps       ncg     rms          rms(c)
RMM:   1     0.802165880758E+03   -0.42036E-01   -0.32944E+00   660   0.307E+00    0.408E-01
RMM:   2     0.802208793864E+03    0.42913E-01    0.33054E-01   781   0.977E-01    0.256E-01
RMM:   3     0.802207159151E+03   -0.16347E-02   -0.30095E-02   971   0.266E-01    0.215E-01
RMM:   4     0.802207576047E+03    0.41690E-03   -0.13168E-02   966   0.144E-01    0.121E-01
RMM:   5     0.802207392868E+03   -0.18318E-03   -0.97217E-03  1004   0.112E-01    0.132E-01
RMM:   6     0.802207855555E+03    0.46269E-03   -0.34004E-03   972   0.771E-02    0.592E-02
RMM:   7     0.802207733236E+03   -0.12232E-03   -0.22461E-03   855   0.489E-02    0.321E-02
RMM:   8     0.802207685407E+03   -0.47828E-04   -0.75638E-04   550   0.340E-02
  70 F= 0.80220769E+03 E0= 0.80217154E+03  d E =-.269932E-02
 curvature:  -2.23 expect dE=-0.567E-03 dE for cont linesearch -0.392E-04
 ZBRENT: bisectioning
 opt :  55.5566  next Energy=   802.206583 (dE=-0.380E-02)
 bond charge predicted
       N       E                     dE             d eps       ncg     rms          rms(c)
RMM:   1     0.802197027938E+03   -0.10705E-01   -0.82099E-01   659   0.153E+00    0.205E-01
RMM:   2     0.802207552369E+03    0.10524E-01    0.82757E-02   778   0.486E-01    0.124E-01
RMM:   3     0.802207211892E+03   -0.34048E-03   -0.65862E-03   905   0.133E-01    0.103E-01
RMM:   4     0.802207353630E+03    0.14174E-03   -0.32858E-03   915   0.739E-02    0.599E-02
RMM:   5     0.802207342455E+03   -0.11175E-04   -0.27411E-03   934   0.583E-02    0.695E-02
RMM:   6     0.802207467114E+03    0.12466E-03   -0.89943E-04   735   0.406E-02    0.317E-02
RMM:   7     0.802207444007E+03   -0.23107E-04   -0.49521E-04   453   0.289E-02
  71 F= 0.80220744E+03 E0= 0.80217104E+03  d E =-.294072E-02
 curvature: -62.68 expect dE=-0.288E-01 dE for cont linesearch -0.417E-04
 ZBRENT: interpolating
 opt :  53.0542  next Energy=   802.207434 (dE=-0.295E-02)
 bond charge predicted
       N       E                     dE             d eps       ncg     rms          rms(c)
RMM:   1     0.802207161754E+03   -0.30536E-03   -0.21422E-02   661   0.251E-01    0.359E-02
RMM:   2     0.802207370204E+03    0.20845E-03    0.16003E-03   616   0.756E-02    0.202E-02
RMM:   3     0.802207363370E+03   -0.68342E-05   -0.13703E-04   477   0.320E-02
  72 F= 0.80220736E+03 E0= 0.80217103E+03  d E =-.302136E-02
 curvature: -15.51 expect dE=-0.600E-02 dE for cont linesearch -0.718E-04
 ZBRENT: interpolating
 opt :  54.8689  next Energy=   802.207441 (dE=-0.294E-02)
 bond charge predicted
       N       E                     dE             d eps       ncg     rms          rms(c)
RMM:   1     0.802207203272E+03   -0.16693E-03   -0.10959E-02   645   0.178E-01    0.176E-02
RMM:   2     0.802207354831E+03    0.15156E-03    0.12286E-03   490   0.652E-02    0.162E-02
RMM:   3     0.802207348522E+03   -0.63082E-05   -0.14108E-04   412   0.251E-02
  73 F= 0.80220735E+03 E0= 0.80217094E+03  d E =-.303621E-02
 curvature:  -0.61 expect dE=-0.284E-03 dE for cont linesearch -0.262E-05
 ZBRENT: bisectioning
 opt :  53.9616  next Energy=   802.207322 (dE=-0.306E-02)
 bond charge predicted
       N       E                     dE             d eps       ncg     rms          rms(c)
RMM:   1     0.802207303715E+03   -0.51116E-04   -0.26702E-03   695   0.909E-02    0.116E-02
RMM:   2     0.802207320676E+03    0.16961E-04    0.93362E-05   479   0.323E-02
  74 F= 0.80220732E+03 E0= 0.80217093E+03  d E =-.306405E-02
 curvature:  -6.21 expect dE=-0.259E-02 dE for cont linesearch -0.132E-05
 trial: gam=13.03939 g(F)=  0.418E-03 g(S)=  0.000E+00 ort = 0.467E-05 (trialstep = 0.763E-01)
 search vector abs. value=  0.179E-01
 bond charge predicted
       N       E                     dE             d eps       ncg     rms          rms(c)
RMM:   1     0.802207207858E+03   -0.95856E-04   -0.38244E-03   611   0.996E-02    0.116E-02
RMM:   2     0.802207277551E+03    0.69692E-04    0.58507E-04   434   0.478E-02
  75 F= 0.80220728E+03 E0= 0.80217086E+03  d E =-.431256E-04
 trial-energy change:   -0.000043  1 .order   -0.000022   -0.000036   -0.000008
 step:   0.0990(harm=  0.0990)  dis= 0.00038  next Energy=   802.207297 (dE=-0.237E-04)
 bond charge predicted
       N       E                     dE             d eps       ncg     rms          rms(c)
RMM:   1     0.802207260360E+03    0.52502E-04   -0.48610E-04   647   0.390E-02    0.834E-03
RMM:   2     0.802207245927E+03   -0.14433E-04   -0.15833E-04   374   0.174E-02
  76 F= 0.80220725E+03 E0= 0.80217083E+03  d E =-.747488E-04
 curvature:  -1.85 expect dE=-0.797E-03 dE for cont linesearch -0.492E-05
 ZBRENT: increasing intervall
 opt :   0.1444  next Energy=   802.207231 (dE=-0.896E-04)
 bond charge predicted
       N       E                     dE             d eps       ncg     rms          rms(c)
RMM:   1     0.802207215165E+03   -0.45195E-04   -0.13727E-03   682   0.662E-02    0.979E-03
RMM:   2     0.802207213110E+03   -0.20554E-05   -0.55130E-05   467   0.303E-02
  77 F= 0.80220721E+03 E0= 0.80217078E+03  d E =-.107567E-03
 curvature:  -5.58 expect dE=-0.240E-02 dE for cont linesearch -0.464E-05
 ZBRENT: increasing intervall
 opt :   0.2352  next Energy=   802.207211 (dE=-0.110E-03)
 bond charge predicted
       N       E                     dE             d eps       ncg     rms          rms(c)
RMM:   1     0.802207104315E+03   -0.11085E-03   -0.55047E-03   652   0.124E-01    0.183E-02
RMM:   2     0.802207165081E+03    0.60766E-04    0.41807E-04   473   0.488E-02
  78 F= 0.80220717E+03 E0= 0.80217072E+03  d E =-.155595E-03
 curvature:  -2.83 expect dE=-0.124E-02 dE for cont linesearch -0.468E-06
 trial: gam= 0.04699 g(F)=  0.439E-03 g(S)=  0.000E+00 ort =-0.545E-04 (trialstep = 0.108E+00)
 search vector abs. value=  0.473E-03
 bond charge predicted
       N       E                     dE             d eps       ncg     rms          rms(c)
RMM:   1     0.802207110470E+03    0.61554E-05   -0.36780E-04   551   0.357E-02    0.942E-03
RMM:   2     0.802207093925E+03   -0.16545E-04   -0.21519E-04   511   0.301E-02
  79 F= 0.80220709E+03 E0= 0.80217065E+03  d E =-.711560E-04
 ZBRENT: can't locate minimum, use default step
 trial-energy change:   -0.000071  1 .order   -0.000046   -0.000047   -0.000045
 step:   0.4323(harm=  2.6634)  dis= 0.00030  next Energy=   802.206584 (dE=-0.581E-03)
 bond charge predicted
       N       E                     dE             d eps       ncg     rms          rms(c)
RMM:   1     0.802206928332E+03   -0.18214E-03   -0.21410E-03   713   0.768E-02    0.104E-02
RMM:   2     0.802206934836E+03    0.65050E-05    0.44801E-05   485   0.323E-02
  80 F= 0.80220693E+03 E0= 0.80217049E+03  d E =-.230245E-03
 curvature:  -0.34 expect dE=-0.993E-04 dE for cont linesearch -0.960E-04
 ZBRENT: increasing intervall
 opt :   1.0807  next Energy=   802.206735 (dE=-0.431E-03)
 bond charge predicted
       N       E                     dE             d eps       ncg     rms          rms(c)
RMM:   1     0.802206531185E+03   -0.39715E-03   -0.91058E-03   658   0.150E-01    0.213E-02
RMM:   2     0.802206677913E+03    0.14673E-03    0.12172E-03   521   0.649E-02    0.144E-02
RMM:   3     0.802206659284E+03   -0.18630E-04   -0.22119E-04   370   0.252E-02
  81 F= 0.80220666E+03 E0= 0.80217018E+03  d E =-.505798E-03
 curvature:  -0.72 expect dE=-0.129E-03 dE for cont linesearch -0.125E-03
 ZBRENT: increasing intervall
 opt :   2.3775  next Energy=   802.206387 (dE=-0.778E-03)
 bond charge predicted
       N       E                     dE             d eps       ncg     rms          rms(c)
RMM:   1     0.802205918190E+03   -0.75972E-03   -0.33154E-02   711   0.295E-01    0.387E-02
RMM:   2     0.802206277743E+03    0.35955E-03    0.31017E-03   686   0.102E-01    0.285E-02
RMM:   3     0.802206238055E+03   -0.39688E-04   -0.50798E-04   573   0.396E-02
  82 F= 0.80220624E+03 E0= 0.80216975E+03  d E =-.927026E-03
 curvature:  -1.57 expect dE=-0.998E-04 dE for cont linesearch -0.795E-04
 ZBRENT: increasing intervall
 opt :   4.9712  next Energy=   802.206178 (dE=-0.987E-03)
 bond charge predicted
       N       E                     dE             d eps       ncg     rms          rms(c)
RMM:   1     0.802203487789E+03   -0.27900E-02   -0.14067E-01   689   0.586E-01    0.844E-02
RMM:   2     0.802205899637E+03    0.24118E-02    0.20110E-02   757   0.233E-01    0.663E-02
RMM:   3     0.802205805361E+03   -0.94277E-04   -0.20701E-03   846   0.655E-02    0.428E-02
RMM:   4     0.802205779407E+03   -0.25954E-04   -0.85183E-04   708   0.401E-02
  83 F= 0.80220578E+03 E0= 0.80216923E+03  d E =-.138567E-02
 curvature:  -1.18 expect dE=-0.670E-04 dE for cont linesearch -0.526E-05
 ZBRENT: bracketing found
 ZBRENT: interpolating
 opt :   4.3788  next Energy=   802.205766 (dE=-0.140E-02)
 bond charge predicted
       N       E                     dE             d eps       ncg     rms          rms(c)
RMM:   1     0.802205665025E+03   -0.14034E-03   -0.67898E-03   642   0.132E-01    0.361E-02
RMM:   2     0.802205716100E+03    0.51075E-04    0.78972E-05   593   0.520E-02
  84 F= 0.80220572E+03 E0= 0.80216920E+03  d E =-.144898E-02
 curvature:  -3.06 expect dE=-0.143E-03 dE for cont linesearch -0.282E-04
 ZBRENT: interpolating
 opt :   4.7285  next Energy=   802.205774 (dE=-0.139E-02)
 bond charge predicted
       N       E                     dE             d eps       ncg     rms          rms(c)
RMM:   1     0.802205722704E+03    0.57679E-04   -0.24136E-03   637   0.815E-02    0.197E-02
RMM:   2     0.802205689644E+03   -0.33060E-04   -0.54417E-04   476   0.326E-02
  85 F= 0.80220569E+03 E0= 0.80216917E+03  d E =-.147544E-02
 curvature:  -0.60 expect dE=-0.241E-04 dE for cont linesearch -0.135E-06
 ZBRENT: interpolating
 opt :   4.6678  next Energy=   802.205689 (dE=-0.148E-02)
 bond charge predicted
       N       E                     dE             d eps       ncg     rms          rms(c)
RMM:   1     0.802205732967E+03    0.10262E-04   -0.16663E-04   411   0.278E-02    0.245E-02
RMM:   2     0.802205632672E+03   -0.10029E-03   -0.13706E-03   614   0.326E-02    0.548E-02
RMM:   3     0.802205714378E+03    0.81706E-04   -0.17255E-04   408   0.207E-02
  86 F= 0.80220571E+03 E0= 0.80216913E+03  d E =-.145070E-02
 curvature:  -1.58 expect dE=-0.841E-04 dE for cont linesearch -0.125E-04
 ZBRENT: interpolating
 opt :   4.7198  next Energy=   802.205690 (dE=-0.148E-02)
 bond charge predicted
       N       E                     dE             d eps       ncg     rms          rms(c)
RMM:   1     0.802205716040E+03    0.83368E-04   -0.18620E-04   393   0.233E-02    0.212E-02
RMM:   2     0.802205599177E+03   -0.11686E-03   -0.14367E-03   542   0.304E-02    0.536E-02
RMM:   3     0.802205671488E+03    0.72310E-04   -0.17764E-04   411   0.238E-02
  87 F= 0.80220567E+03 E0= 0.80216910E+03  d E =-.149359E-02
 curvature:  -0.01 expect dE=-0.282E-06 dE for cont linesearch -0.125E-07
 ZBRENT: interpolating
 opt :   4.7264  next Energy=   802.205690 (dE=-0.148E-02)
 bond charge predicted
       N       E                     dE             d eps       ncg     rms          rms(c)
RMM:   1     0.802205677939E+03    0.78762E-04   -0.79373E-05   417   0.210E-02    0.325E-02
RMM:   2     0.802205476556E+03   -0.20138E-03   -0.26268E-03   591   0.344E-02    0.811E-02
RMM:   3     0.802205656117E+03    0.17956E-03   -0.29935E-04   422   0.231E-02    0.507E-02
RMM:   4     0.802205666255E+03    0.10138E-04   -0.15260E-04   360   0.199E-02
  88 F= 0.80220567E+03 E0= 0.80216909E+03  d E =-.149883E-02
 curvature:   0.00 expect dE=-0.291E-06 dE for cont linesearch -0.410E-07
 ZBRENT: interpolating
 opt :   4.7282  next Energy=   802.205690 (dE=-0.148E-02)
 bond charge predicted
       N       E                     dE             d eps       ncg     rms          rms(c)
RMM:   1     0.802205664283E+03    0.81660E-05   -0.12705E-04   360   0.206E-02    0.330E-02
WARNING in EDDRMM: call to ZHEGV failed, returncode =   8  4 **
RMM:   2     0.802205342050E+03   -0.32223E-03   -0.38558E-03   644   0.371E-02    0.104E-01
WARNING in EDDRMM: call to ZHEGV failed, returncode =   6  3 **
RMM:   3     0.802205600246E+03    0.25820E-03   -0.36917E-04   432   0.263E-02    0.715E-02
RMM:   4     0.802205620511E+03    0.20265E-04   -0.18773E-04   399   0.238E-02
  89 F= 0.80220562E+03 E0= 0.80216904E+03  d E =-.154457E-02
 curvature:   0.00 expect dE=-0.108E-07 dE for cont linesearch -0.103E-08
 ZBRENT: interpolating
 opt :   4.7285  next Energy=   802.205690 (dE=-0.148E-02)
 bond charge predicted
       N       E                     dE             d eps       ncg     rms          rms(c)
RMM:   1     0.802205620279E+03    0.20034E-04   -0.11640E-04   337   0.185E-02    0.555E-02
RMM:   2     0.802204910947E+03   -0.70933E-03   -0.88933E-03   681   0.501E-02    0.160E-01
RMM:   3     0.802205558236E+03    0.64729E-03   -0.10322E-03   562   0.361E-02    0.978E-02
RMM:   4     0.802205604662E+03    0.46426E-04   -0.39301E-04   411   0.257E-02
  90 F= 0.80220560E+03 E0= 0.80216903E+03  d E =-.156042E-02
 curvature:   0.00 expect dE=-0.334E-08 dE for cont linesearch -0.627E-09
 ZBRENT: interpolating
 opt :   4.7285  next Energy=   802.205690 (dE=-0.148E-02)
 bond charge predicted
       N       E                     dE             d eps       ncg     rms          rms(c)
RMM:   1     0.802205612257E+03    0.54022E-04   -0.13622E-04   345   0.213E-02    0.695E-02
RMM:   2     0.802204417506E+03   -0.11948E-02   -0.14727E-02   741   0.621E-02    0.211E-01
RMM:   3     0.802205484915E+03    0.10674E-02   -0.19754E-03   638   0.428E-02    0.128E-01
RMM:   4     0.802205564645E+03    0.79730E-04   -0.60987E-04   446   0.286E-02
  91 F= 0.80220556E+03 E0= 0.80216898E+03  d E =-.160044E-02
 curvature:   0.00 expect dE=-0.149E-09 dE for cont linesearch -0.146E-10
 ZBRENT: interpolating
 opt :   4.7285  next Energy=   802.205690 (dE=-0.148E-02)
 bond charge predicted
       N       E                     dE             d eps       ncg     rms          rms(c)
RMM:   1     0.802205576301E+03    0.91386E-04   -0.18629E-04   377   0.232E-02    0.915E-02
RMM:   2     0.802203652481E+03   -0.19238E-02   -0.23948E-02   766   0.762E-02    0.271E-01
RMM:   3     0.802205435457E+03    0.17830E-02   -0.35430E-03   696   0.525E-02    0.158E-01
RMM:   4     0.802205550730E+03    0.11527E-03   -0.11914E-03   503   0.311E-02    0.112E-01
RMM:   5     0.802205572330E+03    0.21601E-04   -0.21700E-04   402   0.249E-02
  92 F= 0.80220557E+03 E0= 0.80216899E+03  d E =-.159275E-02
 curvature:   0.00 expect dE=-0.534E-10 dE for cont linesearch -0.986E-11
 ZBRENT: interpolating
 opt :   4.7285  next Energy=   802.205690 (dE=-0.148E-02)
 bond charge predicted
       N       E                     dE             d eps       ncg     rms          rms(c)
RMM:   1     0.802205559846E+03    0.91160E-05   -0.22474E-04   382   0.232E-02    0.852E-02
RMM:   2     0.802203995157E+03   -0.15647E-02   -0.19597E-02   762   0.718E-02    0.232E-01
RMM:   3     0.802205385689E+03    0.13905E-02   -0.25151E-03   617   0.479E-02    0.139E-01
RMM:   4     0.802205491043E+03    0.10535E-03   -0.94508E-04   498   0.327E-02    0.102E-01
RMM:   5     0.802205515917E+03    0.24874E-04   -0.29091E-04   440   0.265E-02
  93 F= 0.80220552E+03 E0= 0.80216894E+03  d E =-.164916E-02
 curvature:   0.00 expect dE=-0.212E-11 dE for cont linesearch -0.286E-12
 ZBRENT:  accuracy reached
 opt :   0.0000  next Energy=     0.000000 (dE=-0.802E+03)
 bond charge predicted
       N       E                     dE             d eps       ncg     rms          rms(c)
RMM:   1     0.802198782853E+03   -0.67082E-02   -0.45377E-01   676   0.106E+00    0.175E-01
RMM:   2     0.802205231948E+03    0.64491E-02    0.46770E-02   796   0.419E-01    0.260E-01
RMM:   3     0.802206726748E+03    0.14948E-02   -0.84072E-03   931   0.112E-01    0.125E-01
RMM:   4     0.802206578408E+03   -0.14834E-03   -0.47564E-03   934   0.670E-02    0.699E-02
RMM:   5     0.802206646168E+03    0.67759E-04   -0.10114E-03   734   0.421E-02    0.469E-02
RMM:   6     0.802206645263E+03   -0.90469E-06   -0.90505E-04   693   0.384E-02
  94 F= 0.80220665E+03 E0= 0.80217023E+03  d E =-.519818E-03
 curvature:   0.00 expect dE= 0.374-307 dE for cont linesearch  0.365-307
 ZBRENT: fatal error in bracketing
     please rerun with smaller EDIFF, or copy CONTCAR
     to POSCAR and continue
