       N       E                     dE             d eps       ncg     rms          rms(c)
RMM:   1     0.521907159905E+04    0.52191E+04   -0.16663E+05   274   0.767E+02
RMM:   2     0.111202030157E+04   -0.41071E+04   -0.87661E+04   274   0.288E+02
RMM:   3     0.158723376034E+04    0.47521E+03   -0.33428E+04   274   0.300E+02
RMM:   4     0.106312320089E+04   -0.52411E+03   -0.70519E+03   274   0.173E+02
RMM:   5     0.641920882939E+03   -0.42120E+03   -0.56758E+03   274   0.149E+02
RMM:   6     0.537264974762E+03   -0.10466E+03   -0.31194E+03   274   0.130E+02
RMM:   7     0.430732172590E+03   -0.10653E+03   -0.30148E+03   274   0.127E+02
RMM:   8     0.373503020294E+03   -0.57229E+02   -0.30717E+03   274   0.124E+02
RMM:   9     0.444928008003E+03    0.71425E+02   -0.19122E+03   782   0.124E+02
RMM:  10     0.611038428078E+03    0.16611E+03   -0.14523E+03   803   0.686E+01
RMM:  11     0.776502044763E+03    0.16546E+03    0.61261E+02   824   0.330E+01
RMM:  12     0.752859079233E+03   -0.23643E+02   -0.23861E+02   893   0.130E+01    0.341E+01
RMM:  13     0.789359103771E+03    0.36500E+02   -0.55759E+02   863   0.249E+01    0.205E+01
RMM:  14     0.811219395798E+03    0.21860E+02   -0.70134E+01   781   0.162E+01    0.100E+01
RMM:  15     0.806567824960E+03   -0.46516E+01   -0.12480E+02   919   0.107E+01    0.109E+01
RMM:  16     0.808616642433E+03    0.20488E+01   -0.30270E+01   918   0.551E+00    0.823E+00
RMM:  17     0.806685910447E+03   -0.19307E+01   -0.27635E+01   946   0.366E+00    0.799E+00
RMM:  18     0.806047926776E+03   -0.63798E+00   -0.11284E+01   970   0.261E+00    0.718E+00
RMM:  19     0.805528769140E+03   -0.51916E+00   -0.22925E+01   824   0.419E+00    0.452E+00
RMM:  20     0.805017018293E+03   -0.51175E+00   -0.10604E+01   890   0.270E+00    0.632E+00
RMM:  21     0.805839013322E+03    0.82200E+00   -0.47670E+00   901   0.181E+00    0.427E+00
RMM:  22     0.805832115161E+03   -0.68982E-02   -0.31144E+00   914   0.123E+00    0.281E+00
RMM:  23     0.805693771581E+03   -0.13834E+00   -0.24109E+00   937   0.900E-01    0.154E+00
RMM:  24     0.805525927447E+03   -0.16784E+00   -0.19493E+00   915   0.784E-01    0.845E-01
RMM:  25     0.805337101775E+03   -0.18883E+00   -0.22034E+00   945   0.715E-01    0.131E+00
RMM:  26     0.805115042586E+03   -0.22206E+00   -0.21244E+00   935   0.623E-01    0.241E+00
RMM:  27     0.805015913331E+03   -0.99129E-01   -0.14036E+00   915   0.509E-01    0.284E+00
RMM:  28     0.804905511954E+03   -0.11040E+00   -0.12499E+00   952   0.376E-01    0.336E+00
RMM:  29     0.804906555062E+03    0.10431E-02   -0.11141E+00   825   0.514E-01    0.329E+00
RMM:  30     0.804823552427E+03   -0.83003E-01   -0.87631E-01   898   0.363E-01    0.369E+00
RMM:  31     0.804629401602E+03   -0.19415E+00   -0.11222E+00   778   0.383E-01    0.464E+00
RMM:  32     0.804705520044E+03    0.76118E-01   -0.70587E-01   896   0.442E-01    0.444E+00
RMM:  33     0.804753025285E+03    0.47505E-01   -0.66740E-01   950   0.429E-01    0.410E+00
RMM:  34     0.804691981508E+03   -0.61044E-01   -0.52743E-01   813   0.277E-01    0.431E+00
RMM:  35     0.804691454621E+03   -0.52689E-03   -0.52419E-01   840   0.270E-01    0.419E+00
RMM:  36     0.804648964091E+03   -0.42491E-01   -0.42810E-01   766   0.200E-01    0.433E+00
RMM:  37     0.804596695379E+03   -0.52269E-01   -0.45084E-01   692   0.166E-01    0.450E+00
RMM:  38     0.804558435041E+03   -0.38260E-01   -0.44240E-01   882   0.189E-01    0.464E+00
RMM:  39     0.804502218070E+03   -0.56217E-01   -0.47612E-01   899   0.200E-01    0.485E+00
RMM:  40     0.804422545129E+03   -0.79673E-01   -0.48930E-01   843   0.206E-01    0.518E+00
RMM:  41     0.804336821448E+03   -0.85724E-01   -0.52784E-01   887   0.213E-01    0.557E+00
RMM:  42     0.804370444431E+03    0.33623E-01   -0.44806E-01   808   0.269E-01    0.556E+00
RMM:  43     0.804189018367E+03   -0.18143E+00   -0.54932E-01   853   0.306E-01    0.623E+00
RMM:  44     0.804280978617E+03    0.91960E-01   -0.42139E-01   898   0.310E-01    0.614E+00
RMM:  45     0.804347445300E+03    0.66467E-01   -0.41058E-01   855   0.294E-01    0.599E+00
RMM:  46     0.804438637609E+03    0.91192E-01   -0.35706E-01   907   0.320E-01    0.569E+00
RMM:  47     0.804496872261E+03    0.58235E-01   -0.26106E-01   900   0.313E-01    0.539E+00
RMM:  48     0.804629758297E+03    0.13289E+00   -0.36865E-01   905   0.392E-01    0.466E+00
RMM:  49     0.804619229454E+03   -0.10529E-01   -0.23200E-01   824   0.234E-01    0.445E+00
RMM:  50     0.804625338956E+03    0.61095E-02   -0.27152E-01   877   0.196E-01    0.409E+00
RMM:  51     0.804597283331E+03   -0.28056E-01   -0.19253E-01   849   0.168E-01    0.398E+00
RMM:  52     0.804485356204E+03   -0.11193E+00   -0.23844E-01   825   0.341E-01    0.427E+00
RMM:  53     0.804445538211E+03   -0.39818E-01   -0.16438E-01   891   0.217E-01    0.440E+00
RMM:  54     0.804342537354E+03   -0.10300E+00   -0.23530E-01   884   0.254E-01    0.485E+00
RMM:  55     0.804181494217E+03   -0.16104E+00   -0.41050E-01   880   0.350E-01    0.561E+00
RMM:  56     0.804255388413E+03    0.73894E-01   -0.25731E-01   892   0.348E-01    0.560E+00
RMM:  57     0.804378656248E+03    0.12327E+00   -0.26586E-01   868   0.351E-01    0.524E+00
RMM:  58     0.804540935797E+03    0.16228E+00   -0.34497E-01   894   0.455E-01    0.441E+00
RMM:  59     0.804523200414E+03   -0.17735E-01   -0.18600E-01   856   0.219E-01    0.425E+00
RMM:  60     0.804576790453E+03    0.53590E-01   -0.39829E-01   822   0.315E-01
   1 F= 0.80457679E+03 E0= 0.80452495E+03  d E =0.804577E+03
       N       E                     dE             d eps       ncg     rms          rms(c)
RMM:   1     0.804461332201E+03   -0.61868E-01   -0.34171E+00   698   0.282E+00    0.325E+00
RMM:   2     0.803156942072E+03   -0.13044E+01   -0.17960E+01   907   0.286E+00    0.588E+00
RMM:   3     0.804266257348E+03    0.11093E+01   -0.33892E+00   897   0.179E+00    0.316E+00
RMM:   4     0.804288296326E+03    0.22039E-01   -0.16087E+00   910   0.105E+00    0.212E+00
RMM:   5     0.804280053505E+03   -0.82428E-02   -0.45679E-01   891   0.506E-01    0.200E+00
RMM:   6     0.804251477147E+03   -0.28576E-01   -0.38739E-01   980   0.330E-01    0.202E+00
RMM:   7     0.804236823682E+03   -0.14653E-01   -0.26920E-01   907   0.248E-01    0.205E+00
RMM:   8     0.804240162458E+03    0.33388E-02   -0.21944E-01   888   0.250E-01    0.193E+00
RMM:   9     0.804271762964E+03    0.31601E-01   -0.26467E-01   872   0.410E-01    0.123E+00
RMM:  10     0.804270667365E+03   -0.10956E-02   -0.37985E-01   940   0.458E-01    0.283E-01
RMM:  11     0.804253405340E+03   -0.17262E-01   -0.18918E-01   827   0.245E-01    0.210E-01
RMM:  12     0.804236073685E+03   -0.17332E-01   -0.17808E-01   910   0.162E-01    0.422E-01
RMM:  13     0.804223752081E+03   -0.12322E-01   -0.13360E-01   847   0.132E-01    0.585E-01
RMM:  14     0.804208800677E+03   -0.14951E-01   -0.13767E-01   659   0.993E-02    0.848E-01
RMM:  15     0.804206053449E+03   -0.27472E-02   -0.10884E-01   842   0.177E-01    0.789E-01
RMM:  16     0.804201545437E+03   -0.45080E-02   -0.81653E-02   887   0.133E-01    0.783E-01
RMM:  17     0.804194546413E+03   -0.69990E-02   -0.78254E-02   830   0.111E-01    0.829E-01
RMM:  18     0.804190343578E+03   -0.42028E-02   -0.66701E-02   797   0.887E-02    0.813E-01
RMM:  19     0.804182131105E+03   -0.82125E-02   -0.67047E-02   518   0.662E-02    0.899E-01
RMM:  20     0.804179075061E+03   -0.30560E-02   -0.62646E-02   766   0.825E-02    0.855E-01
RMM:  21     0.804180084563E+03    0.10095E-02   -0.83917E-02   874   0.156E-01    0.524E-01
RMM:  22     0.804174755205E+03   -0.53294E-02   -0.69246E-02   821   0.102E-01    0.344E-01
RMM:  23     0.804168211033E+03   -0.65442E-02   -0.63042E-02   533   0.685E-02    0.263E-01
RMM:  24     0.804162078993E+03   -0.61320E-02   -0.62216E-02   609   0.676E-02    0.185E-01
RMM:  25     0.804155957746E+03   -0.61212E-02   -0.60519E-02   578   0.658E-02    0.161E-01
RMM:  26     0.804150034034E+03   -0.59237E-02   -0.58103E-02   487   0.583E-02    0.196E-01
RMM:  27     0.804143943241E+03   -0.60908E-02   -0.58930E-02   558   0.639E-02    0.273E-01
RMM:  28     0.804137821126E+03   -0.61221E-02   -0.58392E-02   575   0.640E-02    0.373E-01
RMM:  29     0.804131819970E+03   -0.60012E-02   -0.57236E-02   525   0.633E-02    0.475E-01
RMM:  30     0.804125896937E+03   -0.59230E-02   -0.56143E-02   532   0.626E-02    0.580E-01
RMM:  31     0.804120354425E+03   -0.55425E-02   -0.54123E-02   483   0.582E-02    0.674E-01
RMM:  32     0.804114549575E+03   -0.58048E-02   -0.54042E-02   548   0.601E-02    0.780E-01
RMM:  33     0.804109564147E+03   -0.49854E-02   -0.51178E-02   504   0.576E-02    0.866E-01
RMM:  34     0.804106702263E+03   -0.28619E-02   -0.46802E-02   501   0.603E-02    0.903E-01
RMM:  35     0.804102244168E+03   -0.44581E-02   -0.45209E-02   518   0.556E-02    0.961E-01
RMM:  36     0.804098248906E+03   -0.39953E-02   -0.43787E-02   482   0.518E-02    0.101E+00
RMM:  37     0.804094098252E+03   -0.41507E-02   -0.42432E-02   424   0.493E-02    0.107E+00
RMM:  38     0.804090179228E+03   -0.39190E-02   -0.41317E-02   436   0.473E-02    0.112E+00
RMM:  39     0.804086081076E+03   -0.40982E-02   -0.40393E-02   404   0.479E-02    0.117E+00
RMM:  40     0.804082124808E+03   -0.39563E-02   -0.39508E-02   407   0.455E-02    0.122E+00
RMM:  41     0.804078243043E+03   -0.38818E-02   -0.38581E-02   397   0.454E-02    0.128E+00
RMM:  42     0.804074281907E+03   -0.39611E-02   -0.37889E-02   387   0.451E-02    0.133E+00
RMM:  43     0.804070547953E+03   -0.37340E-02   -0.36991E-02   353   0.420E-02    0.138E+00
RMM:  44     0.804066791973E+03   -0.37560E-02   -0.36295E-02   314   0.405E-02    0.143E+00
RMM:  45     0.804063189641E+03   -0.36023E-02   -0.35515E-02   318   0.394E-02    0.149E+00
RMM:  46     0.804059607609E+03   -0.35820E-02   -0.34827E-02   305   0.392E-02    0.154E+00
RMM:  47     0.804057207554E+03   -0.24001E-02   -0.33535E-02   459   0.422E-02    0.157E+00
RMM:  48     0.804055837278E+03   -0.13703E-02   -0.32293E-02   497   0.471E-02    0.159E+00
RMM:  49     0.804051599369E+03   -0.42379E-02   -0.31735E-02   407   0.443E-02    0.164E+00
RMM:  50     0.804048418555E+03   -0.31808E-02   -0.31209E-02   501   0.476E-02    0.168E+00
RMM:  51     0.804045274011E+03   -0.31445E-02   -0.30564E-02   454   0.448E-02    0.172E+00
RMM:  52     0.804039436250E+03   -0.58378E-02   -0.31957E-02   538   0.496E-02    0.180E+00
RMM:  53     0.804035937606E+03   -0.34986E-02   -0.30734E-02   440   0.419E-02    0.185E+00
RMM:  54     0.804032977507E+03   -0.29601E-02   -0.30099E-02   410   0.399E-02    0.191E+00
RMM:  55     0.804030202772E+03   -0.27747E-02   -0.29386E-02   440   0.441E-02    0.196E+00
RMM:  56     0.804026925437E+03   -0.32773E-02   -0.29009E-02   461   0.429E-02    0.201E+00
RMM:  57     0.804012725730E+03   -0.14200E-01   -0.42217E-02   820   0.880E-02    0.220E+00
RMM:  58     0.804007115280E+03   -0.56104E-02   -0.35894E-02   564   0.560E-02    0.231E+00
RMM:  59     0.804003855686E+03   -0.32596E-02   -0.35063E-02   488   0.524E-02    0.241E+00
RMM:  60     0.804000262862E+03   -0.35928E-02   -0.33598E-02   477   0.486E-02
   2 F= 0.80400026E+03 E0= 0.80394800E+03  d E =-.576528E+00
       N       E                     dE             d eps       ncg     rms          rms(c)
RMM:   1     0.803455669518E+03   -0.54819E+00   -0.25521E+01   668   0.802E+00    0.267E+00
RMM:   2     0.803209479419E+03   -0.24619E+00   -0.58338E+00   814   0.378E+00    0.414E+00
RMM:   3     0.803851209743E+03    0.64173E+00   -0.13191E+00   885   0.147E+00    0.216E+00
RMM:   4     0.803870442891E+03    0.19233E-01   -0.79679E-01  1001   0.872E-01    0.123E+00
RMM:   5     0.803883950249E+03    0.13507E-01   -0.17604E-01   978   0.472E-01    0.699E-01
RMM:   6     0.803878611664E+03   -0.53386E-02   -0.91757E-02  1001   0.283E-01    0.465E-01
RMM:   7     0.803876316724E+03   -0.22949E-02   -0.50283E-02  1004   0.213E-01    0.346E-01
RMM:   8     0.803875280494E+03   -0.10362E-02   -0.40134E-02  1006   0.165E-01    0.180E-01
RMM:   9     0.803870732186E+03   -0.45483E-02   -0.62689E-02  1017   0.132E-01    0.235E-01
RMM:  10     0.803865982690E+03   -0.47495E-02   -0.49735E-02   993   0.977E-02    0.392E-01
RMM:  11     0.803861735589E+03   -0.42471E-02   -0.42336E-02   703   0.694E-02    0.539E-01
RMM:  12     0.803857114976E+03   -0.46206E-02   -0.43798E-02   713   0.694E-02    0.702E-01
RMM:  13     0.803853201000E+03   -0.39140E-02   -0.39956E-02   593   0.623E-02    0.844E-01
RMM:  14     0.803848307302E+03   -0.48937E-02   -0.41191E-02   595   0.662E-02    0.100E+00
RMM:  15     0.803842344313E+03   -0.59630E-02   -0.44165E-02   627   0.630E-02    0.118E+00
RMM:  16     0.803839129074E+03   -0.32152E-02   -0.38845E-02   493   0.553E-02    0.132E+00
RMM:  17     0.803830417138E+03   -0.87119E-02   -0.50159E-02   672   0.651E-02    0.153E+00
RMM:  18     0.803820833425E+03   -0.95837E-02   -0.55638E-02   700   0.693E-02    0.177E+00
RMM:  19     0.803816621545E+03   -0.42119E-02   -0.48404E-02   518   0.576E-02    0.193E+00
RMM:  20     0.803808441833E+03   -0.81797E-02   -0.53838E-02   591   0.612E-02    0.213E+00
RMM:  21     0.803803144235E+03   -0.52976E-02   -0.50056E-02   509   0.592E-02    0.230E+00
RMM:  22     0.803797946976E+03   -0.51973E-02   -0.49209E-02   453   0.537E-02    0.247E+00
RMM:  23     0.803793309997E+03   -0.46370E-02   -0.46864E-02   408   0.527E-02    0.263E+00
RMM:  24     0.803788675859E+03   -0.46341E-02   -0.45646E-02   416   0.520E-02    0.279E+00
RMM:  25     0.803784358037E+03   -0.43178E-02   -0.43901E-02   407   0.512E-02    0.294E+00
RMM:  26     0.803780008399E+03   -0.43496E-02   -0.42729E-02   349   0.474E-02    0.309E+00
RMM:  27     0.803775776769E+03   -0.42316E-02   -0.41374E-02   320   0.460E-02    0.323E+00
RMM:  28     0.803771814452E+03   -0.39623E-02   -0.40144E-02   348   0.461E-02    0.337E+00
RMM:  29     0.803767989318E+03   -0.38251E-02   -0.38812E-02   312   0.436E-02    0.351E+00
RMM:  30     0.803764129971E+03   -0.38593E-02   -0.37821E-02   331   0.443E-02    0.365E+00
RMM:  31     0.803760444389E+03   -0.36856E-02   -0.36687E-02   323   0.436E-02    0.378E+00
RMM:  32     0.803756884061E+03   -0.35603E-02   -0.35706E-02   324   0.428E-02    0.391E+00
RMM:  33     0.803753346324E+03   -0.35377E-02   -0.34742E-02   327   0.418E-02    0.403E+00
RMM:  34     0.803750089496E+03   -0.32568E-02   -0.33672E-02   306   0.408E-02    0.415E+00
RMM:  35     0.803746597794E+03   -0.34917E-02   -0.32965E-02   321   0.416E-02    0.427E+00
RMM:  36     0.803743253003E+03   -0.33448E-02   -0.32187E-02   334   0.411E-02    0.439E+00
RMM:  37     0.803740091577E+03   -0.31614E-02   -0.31294E-02   316   0.400E-02    0.451E+00
RMM:  38     0.803736953486E+03   -0.31381E-02   -0.30605E-02   330   0.392E-02    0.462E+00
RMM:  39     0.803733808258E+03   -0.31452E-02   -0.29898E-02   308   0.387E-02    0.473E+00
RMM:  40     0.803730812653E+03   -0.29956E-02   -0.29158E-02   307   0.391E-02    0.484E+00
RMM:  41     0.803727874953E+03   -0.29377E-02   -0.28518E-02   318   0.375E-02    0.495E+00
RMM:  42     0.803724798317E+03   -0.30766E-02   -0.27972E-02   303   0.377E-02    0.505E+00
RMM:  43     0.803721936325E+03   -0.28620E-02   -0.27319E-02   319   0.377E-02    0.515E+00
RMM:  44     0.803719252200E+03   -0.26841E-02   -0.26692E-02   311   0.371E-02    0.525E+00
RMM:  45     0.803716497219E+03   -0.27550E-02   -0.26119E-02   308   0.365E-02    0.535E+00
RMM:  46     0.803714114403E+03   -0.23828E-02   -0.25445E-02   313   0.373E-02    0.545E+00
RMM:  47     0.803717660189E+03    0.35458E-02   -0.22707E-02   404   0.381E-02    0.552E+00
RMM:  48     0.803715017737E+03   -0.26425E-02   -0.22634E-02   409   0.371E-02    0.560E+00
RMM:  49     0.803712788291E+03   -0.22294E-02   -0.22147E-02   396   0.392E-02    0.568E+00
RMM:  50     0.803710207439E+03   -0.25809E-02   -0.21798E-02   476   0.410E-02    0.577E+00
RMM:  51     0.803708069956E+03   -0.21375E-02   -0.21411E-02   477   0.419E-02    0.585E+00
RMM:  52     0.803800862712E+03    0.92793E-01   -0.38963E-02   828   0.163E-01    0.551E+00
RMM:  53     0.803806206298E+03    0.53436E-02   -0.16163E-02   798   0.720E-02    0.543E+00
RMM:  54     0.803804054738E+03   -0.21516E-02   -0.17407E-02   492   0.432E-02    0.538E+00
RMM:  55     0.803805302579E+03    0.12478E-02   -0.14634E-02   528   0.432E-02    0.533E+00
RMM:  56     0.803794266425E+03   -0.11036E-01   -0.13039E-02   503   0.424E-02    0.533E+00
RMM:  57     0.803824280950E+03    0.30015E-01   -0.39079E-02   882   0.106E-01    0.511E+00
RMM:  58     0.803802152463E+03   -0.22128E-01   -0.15627E-02   802   0.726E-02    0.513E+00
RMM:  59     0.803788688198E+03   -0.13464E-01   -0.14069E-02   734   0.608E-02    0.515E+00
RMM:  60     0.803781344418E+03   -0.73438E-02   -0.11129E-02   531   0.454E-02
   3 F= 0.80378134E+03 E0= 0.80373256E+03  d E =-.795446E+00
       N       E                     dE             d eps       ncg     rms          rms(c)
RMM:   1     0.801988801044E+03   -0.17999E+01   -0.10176E+02   662   0.160E+01    0.560E+00
RMM:   2     0.801311346151E+03   -0.67745E+00   -0.21565E+01   804   0.781E+00    0.743E+00
RMM:   3     0.803560028217E+03    0.22487E+01   -0.59647E+00   879   0.292E+00    0.393E+00
RMM:   4     0.803613698699E+03    0.53670E-01   -0.32881E+00   995   0.168E+00    0.267E+00
RMM:   5     0.803663491356E+03    0.49793E-01   -0.10589E+00  1015   0.945E-01    0.193E+00
RMM:   6     0.803650651618E+03   -0.12840E-01   -0.51437E-01  1023   0.590E-01    0.171E+00
RMM:   7     0.803656319614E+03    0.56680E-02   -0.26296E-01  1018   0.485E-01    0.141E+00
RMM:   8     0.803673318909E+03    0.16999E-01   -0.15056E-01  1019   0.383E-01    0.927E-01
RMM:   9     0.803666125668E+03   -0.71932E-02   -0.37496E-01   949   0.444E-01    0.456E-01
RMM:  10     0.803642033627E+03   -0.24092E-01   -0.26194E-01   943   0.289E-01    0.920E-01
RMM:  11     0.803638145343E+03   -0.38883E-02   -0.13164E-01   981   0.186E-01    0.107E+00
RMM:  12     0.803619698390E+03   -0.18447E-01   -0.15183E-01   951   0.119E-01    0.144E+00
RMM:  13     0.803644775949E+03    0.25078E-01   -0.12423E-01   822   0.294E-01    0.115E+00
RMM:  14     0.803649047732E+03    0.42718E-02   -0.39807E-02   891   0.158E-01    0.108E+00
RMM:  15     0.803641865584E+03   -0.71821E-02   -0.33340E-02   822   0.934E-02    0.124E+00
RMM:  16     0.803639908081E+03   -0.19575E-02   -0.24873E-02   773   0.645E-02    0.134E+00
RMM:  17     0.803638823133E+03   -0.10849E-02   -0.21312E-02   516   0.490E-02    0.143E+00
RMM:  18     0.803628788730E+03   -0.10034E-01   -0.38388E-02   836   0.740E-02    0.164E+00
RMM:  19     0.803625067423E+03   -0.37213E-02   -0.30601E-02   497   0.509E-02    0.178E+00
RMM:  20     0.803621790049E+03   -0.32774E-02   -0.34232E-02   638   0.616E-02    0.191E+00
RMM:  21     0.803619287857E+03   -0.25022E-02   -0.29301E-02   522   0.511E-02    0.202E+00
RMM:  22     0.803618203261E+03   -0.10846E-02   -0.26211E-02   478   0.484E-02    0.212E+00
RMM:  23     0.803622313127E+03    0.41099E-02   -0.21087E-02   784   0.736E-02    0.216E+00
RMM:  24     0.803632092429E+03    0.97793E-02   -0.13890E-02   842   0.761E-02    0.212E+00
RMM:  25     0.803632933353E+03    0.84092E-03   -0.95042E-03   497   0.402E-02    0.214E+00
RMM:  26     0.803635090306E+03    0.21570E-02   -0.91802E-03   666   0.442E-02    0.214E+00
RMM:  27     0.803634048597E+03   -0.10417E-02   -0.83144E-03   541   0.363E-02    0.217E+00
RMM:  28     0.803631584138E+03   -0.24645E-02   -0.90574E-03   449   0.319E-02    0.222E+00
RMM:  29     0.803629061929E+03   -0.25222E-02   -0.90011E-03   441   0.340E-02    0.227E+00
RMM:  30     0.803628234975E+03   -0.82695E-03   -0.89822E-03   495   0.377E-02    0.231E+00
RMM:  31     0.803636505097E+03    0.82701E-02   -0.95880E-03   788   0.557E-02    0.226E+00
RMM:  32     0.803656565761E+03    0.20061E-01   -0.26754E-02   887   0.115E-01    0.198E+00
RMM:  33     0.803666164329E+03    0.95986E-02   -0.35850E-02   873   0.992E-02    0.171E+00
RMM:  34     0.803668370685E+03    0.22064E-02   -0.37014E-02   816   0.757E-02    0.150E+00
RMM:  35     0.803664860083E+03   -0.35106E-02   -0.25047E-02   533   0.554E-02    0.139E+00
RMM:  36     0.803660348290E+03   -0.45118E-02   -0.18373E-02   765   0.650E-02    0.132E+00
RMM:  37     0.803658969613E+03   -0.13787E-02   -0.16113E-02   482   0.441E-02    0.123E+00
RMM:  38     0.803656937120E+03   -0.20325E-02   -0.15301E-02   475   0.411E-02    0.115E+00
RMM:  39     0.803660181501E+03    0.32444E-02   -0.36501E-02   806   0.752E-02    0.894E-01
RMM:  40     0.803659118338E+03   -0.10632E-02   -0.51511E-02   852   0.871E-02    0.641E-01
RMM:  41     0.803655646492E+03   -0.34718E-02   -0.38445E-02   681   0.636E-02    0.493E-01
RMM:  42     0.803651862982E+03   -0.37835E-02   -0.37625E-02   539   0.551E-02    0.387E-01
RMM:  43     0.803648188142E+03   -0.36748E-02   -0.42131E-02   658   0.606E-02    0.309E-01
RMM:  44     0.803643420928E+03   -0.47672E-02   -0.47598E-02   652   0.639E-02    0.374E-01
RMM:  45     0.803638909555E+03   -0.45114E-02   -0.44624E-02   499   0.569E-02    0.500E-01
RMM:  46     0.803633123002E+03   -0.57866E-02   -0.50898E-02   674   0.640E-02    0.689E-01
RMM:  47     0.803628004001E+03   -0.51190E-02   -0.47104E-02   566   0.613E-02    0.863E-01
RMM:  48     0.803624011412E+03   -0.39926E-02   -0.42674E-02   470   0.559E-02    0.102E+00
RMM:  49     0.803617948386E+03   -0.60630E-02   -0.47262E-02   575   0.576E-02    0.121E+00
RMM:  50     0.803610115306E+03   -0.78331E-02   -0.53995E-02   707   0.664E-02    0.143E+00
RMM:  51     0.803603152739E+03   -0.69626E-02   -0.53829E-02   575   0.600E-02    0.164E+00
RMM:  52     0.803617367038E+03    0.14214E-01   -0.46557E-02   834   0.160E-01    0.158E+00
RMM:  53     0.803618153491E+03    0.78645E-03   -0.19978E-02   788   0.762E-02    0.162E+00
RMM:  54     0.803615998795E+03   -0.21547E-02   -0.21691E-02   487   0.438E-02    0.171E+00
RMM:  55     0.803614819207E+03   -0.11796E-02   -0.18984E-02   507   0.458E-02    0.179E+00
RMM:  56     0.803611404432E+03   -0.34148E-02   -0.20691E-02   470   0.445E-02    0.189E+00
RMM:  57     0.803595083160E+03   -0.16321E-01   -0.56862E-02   909   0.112E-01    0.216E+00
RMM:  58     0.803587047036E+03   -0.80361E-02   -0.39699E-02   767   0.761E-02    0.234E+00
RMM:  59     0.803577511355E+03   -0.95357E-02   -0.47416E-02   833   0.789E-02    0.256E+00
RMM:  60     0.803577729055E+03    0.21770E-03   -0.34333E-02   600   0.588E-02
   4 F= 0.80357773E+03 E0= 0.80353559E+03  d E =-.999061E+00
       N       E                     dE             d eps       ncg     rms          rms(c)
RMM:   1     0.803156017415E+03   -0.42149E+00   -0.23479E+01   676   0.766E+00    0.292E+00
RMM:   2     0.802949672062E+03   -0.20635E+00   -0.66404E+00   810   0.384E+00    0.397E+00
RMM:   3     0.803566489343E+03    0.61682E+00   -0.16244E+00   885   0.150E+00    0.214E+00
RMM:   4     0.803600342940E+03    0.33854E-01   -0.75622E-01  1001   0.836E-01    0.141E+00
RMM:   5     0.803621035306E+03    0.20692E-01   -0.17085E-01  1006   0.446E-01    0.980E-01
RMM:   6     0.803624902843E+03    0.38675E-02   -0.62463E-02  1021   0.266E-01    0.687E-01
RMM:   7     0.803625890995E+03    0.98815E-03   -0.41521E-02  1020   0.195E-01    0.475E-01
RMM:   8     0.803627217722E+03    0.13267E-02   -0.45149E-02   989   0.209E-01    0.158E-01
RMM:   9     0.803623244461E+03   -0.39733E-02   -0.53167E-02   992   0.133E-01    0.250E-01
RMM:  10     0.803619544297E+03   -0.37002E-02   -0.38750E-02  1003   0.911E-02    0.409E-01
RMM:  11     0.803616464426E+03   -0.30799E-02   -0.32302E-02   658   0.622E-02    0.553E-01
RMM:  12     0.803608287348E+03   -0.81771E-02   -0.55750E-02   941   0.814E-02    0.845E-01
RMM:  13     0.803599978863E+03   -0.83085E-02   -0.57631E-02   739   0.770E-02    0.112E+00
RMM:  14     0.803593749342E+03   -0.62295E-02   -0.54460E-02   501   0.615E-02    0.133E+00
RMM:  15     0.803591086986E+03   -0.26624E-02   -0.44670E-02   507   0.616E-02    0.149E+00
RMM:  16     0.803594697413E+03    0.36104E-02   -0.31173E-02   791   0.811E-02    0.157E+00
RMM:  17     0.803601635879E+03    0.69385E-02   -0.19268E-02   840   0.820E-02    0.156E+00
RMM:  18     0.803603696334E+03    0.20605E-02   -0.12266E-02   671   0.516E-02    0.159E+00
RMM:  19     0.803601669976E+03   -0.20264E-02   -0.11833E-02   488   0.372E-02    0.167E+00
RMM:  20     0.803604461744E+03    0.27918E-02   -0.91139E-03   638   0.446E-02    0.169E+00
RMM:  21     0.803609768628E+03    0.53069E-02   -0.69339E-03   758   0.565E-02    0.165E+00
RMM:  22     0.803613635803E+03    0.38672E-02   -0.49251E-03   651   0.438E-02    0.161E+00
RMM:  23     0.803618719693E+03    0.50839E-02   -0.55666E-03   817   0.543E-02    0.152E+00
RMM:  24     0.803625519453E+03    0.67998E-02   -0.11542E-02   800   0.671E-02    0.135E+00
RMM:  25     0.803631881260E+03    0.63618E-02   -0.25885E-02   879   0.858E-02    0.107E+00
RMM:  26     0.803635802135E+03    0.39209E-02   -0.62627E-02   895   0.122E-01    0.652E-01
RMM:  27     0.803632048191E+03   -0.37539E-02   -0.75125E-02   875   0.105E-01    0.281E-01
RMM:  28     0.803626650029E+03   -0.53982E-02   -0.43187E-02   806   0.738E-02    0.156E-01
RMM:  29     0.803622670594E+03   -0.39794E-02   -0.26960E-02   897   0.923E-02    0.144E-01
RMM:  30     0.803620608178E+03   -0.20624E-02   -0.16485E-02   720   0.582E-02    0.102E-01
RMM:  31     0.803619140458E+03   -0.14677E-02   -0.13586E-02   493   0.416E-02    0.409E-02
RMM:  32     0.803617948209E+03   -0.11922E-02   -0.11509E-02   511   0.400E-02    0.580E-02
RMM:  33     0.803616773554E+03   -0.11747E-02   -0.11492E-02   455   0.387E-02    0.134E-01
RMM:  34     0.803616052400E+03   -0.72115E-03   -0.90032E-03   600   0.410E-02    0.172E-01
RMM:  35     0.803614748501E+03   -0.13039E-02   -0.10725E-02   418   0.301E-02    0.267E-01
RMM:  36     0.803614164309E+03   -0.58419E-03   -0.82346E-03   431   0.324E-02    0.322E-01
RMM:  37     0.803612651924E+03   -0.15124E-02   -0.10818E-02   449   0.343E-02    0.419E-01
RMM:  38     0.803611266646E+03   -0.13853E-02   -0.10937E-02   528   0.369E-02    0.509E-01
RMM:  39     0.803610107177E+03   -0.11595E-02   -0.10747E-02   468   0.367E-02    0.592E-01
RMM:  40     0.803608903148E+03   -0.12040E-02   -0.10660E-02   413   0.294E-02    0.676E-01
RMM:  41     0.803607850356E+03   -0.10528E-02   -0.10253E-02   368   0.275E-02    0.755E-01
RMM:  42     0.803606943711E+03   -0.90665E-03   -0.97418E-03   322   0.260E-02    0.828E-01
RMM:  43     0.803605721335E+03   -0.12224E-02   -0.99626E-03   329   0.263E-02    0.908E-01
RMM:  44     0.803605487072E+03   -0.23426E-03   -0.84165E-03   358   0.265E-02    0.967E-01
RMM:  45     0.803604459870E+03   -0.10272E-02   -0.86760E-03   343   0.277E-02    0.104E+00
RMM:  46     0.803601430821E+03   -0.30290E-02   -0.12107E-02   438   0.349E-02    0.115E+00
RMM:  47     0.803595854528E+03   -0.55763E-02   -0.19452E-02   645   0.532E-02    0.133E+00
RMM:  48     0.803593946738E+03   -0.19078E-02   -0.15923E-02   466   0.413E-02    0.144E+00
RMM:  49     0.803593076320E+03   -0.87042E-03   -0.14692E-02   415   0.353E-02    0.153E+00
RMM:  50     0.803591375260E+03   -0.17011E-02   -0.14432E-02   420   0.334E-02    0.163E+00
RMM:  51     0.803589062383E+03   -0.23129E-02   -0.15274E-02   441   0.371E-02    0.174E+00
RMM:  52     0.803581111596E+03   -0.79508E-02   -0.25142E-02   682   0.563E-02    0.194E+00
RMM:  53     0.803579631661E+03   -0.14799E-02   -0.19382E-02   438   0.369E-02    0.205E+00
RMM:  54     0.803577196899E+03   -0.24348E-02   -0.20143E-02   407   0.396E-02    0.217E+00
RMM:  55     0.803575026020E+03   -0.21709E-02   -0.19104E-02   472   0.420E-02    0.229E+00
RMM:  56     0.803572780935E+03   -0.22451E-02   -0.19178E-02   492   0.423E-02    0.240E+00
RMM:  57     0.803531689093E+03   -0.41092E-01   -0.93085E-02   825   0.143E-01    0.293E+00
RMM:  58     0.803526645399E+03   -0.50437E-02   -0.53860E-02   646   0.715E-02    0.314E+00
RMM:  59     0.803520344604E+03   -0.63008E-02   -0.58005E-02   558   0.608E-02    0.337E+00
RMM:  60     0.803515363974E+03   -0.49806E-02   -0.50960E-02   525   0.582E-02
   5 F= 0.80351536E+03 E0= 0.80347686E+03  d E =-.106143E+01
       N       E                     dE             d eps       ncg     rms          rms(c)
RMM:   1     0.803021929163E+03   -0.49842E+00   -0.20562E+01   681   0.717E+00    0.390E+00
RMM:   2     0.801956118669E+03   -0.10658E+01   -0.18551E+01   838   0.438E+00    0.600E+00
RMM:   3     0.803396369076E+03    0.14403E+01   -0.30143E+00   870   0.203E+00    0.321E+00
RMM:   4     0.803465860386E+03    0.69491E-01   -0.12913E+00   944   0.109E+00    0.216E+00
RMM:   5     0.803509003939E+03    0.43144E-01   -0.27733E-01  1006   0.580E-01    0.149E+00
RMM:   6     0.803512041287E+03    0.30373E-02   -0.91953E-02  1015   0.306E-01    0.114E+00
RMM:   7     0.803512705915E+03    0.66463E-03   -0.44147E-02  1017   0.222E-01    0.924E-01
RMM:   8     0.803517755821E+03    0.50499E-02   -0.58429E-02   989   0.211E-01    0.519E-01
RMM:   9     0.803511846598E+03   -0.59092E-02   -0.15114E-01   999   0.204E-01    0.211E-01
RMM:  10     0.803493671576E+03   -0.18175E-01   -0.17809E-01   996   0.166E-01    0.700E-01
RMM:  11     0.803482881207E+03   -0.10790E-01   -0.11834E-01   885   0.105E-01    0.984E-01
RMM:  12     0.803454614974E+03   -0.28266E-01   -0.19986E-01   938   0.136E-01    0.155E+00
RMM:  13     0.803417757787E+03   -0.36857E-01   -0.24388E-01   865   0.146E-01    0.215E+00
RMM:  14     0.803433079196E+03    0.15321E-01   -0.12369E-01   860   0.163E-01    0.224E+00
RMM:  15     0.803465681856E+03    0.32603E-01   -0.66665E-02   900   0.204E-01    0.208E+00
RMM:  16     0.803479337657E+03    0.13656E-01   -0.25065E-02   866   0.126E-01    0.200E+00
RMM:  17     0.803489142081E+03    0.98044E-02   -0.12007E-02   878   0.863E-02    0.193E+00
RMM:  18     0.803487615246E+03   -0.15268E-02   -0.60586E-03   537   0.398E-02    0.197E+00
RMM:  19     0.803506998582E+03    0.19383E-01   -0.14651E-02   867   0.112E-01    0.172E+00
RMM:  20     0.803527188398E+03    0.20190E-01   -0.67395E-02   890   0.170E-01    0.119E+00
RMM:  21     0.803529939946E+03    0.27515E-02   -0.12136E-01   902   0.165E-01    0.609E-01
RMM:  22     0.803521795482E+03   -0.81445E-02   -0.92747E-02   840   0.102E-01    0.288E-01
RMM:  23     0.803514305104E+03   -0.74904E-02   -0.49676E-02   797   0.103E-01    0.233E-01
RMM:  24     0.803510050790E+03   -0.42543E-02   -0.30459E-02   870   0.896E-02    0.202E-01
RMM:  25     0.803506285539E+03   -0.37653E-02   -0.45362E-02   778   0.741E-02    0.145E-01
RMM:  26     0.803501708493E+03   -0.45770E-02   -0.44617E-02   505   0.557E-02    0.321E-01
RMM:  27     0.803497463125E+03   -0.42454E-02   -0.41753E-02   492   0.539E-02    0.497E-01
RMM:  28     0.803492960750E+03   -0.45024E-02   -0.41973E-02   446   0.525E-02    0.680E-01
RMM:  29     0.803488765452E+03   -0.41953E-02   -0.40345E-02   471   0.533E-02    0.855E-01
RMM:  30     0.803485512402E+03   -0.32530E-02   -0.36420E-02   462   0.502E-02    0.101E+00
RMM:  31     0.803482095880E+03   -0.34165E-02   -0.34882E-02   397   0.443E-02    0.117E+00
RMM:  32     0.803479590387E+03   -0.25055E-02   -0.31298E-02   401   0.422E-02    0.131E+00
RMM:  33     0.803476358234E+03   -0.32322E-02   -0.30862E-02   413   0.426E-02    0.146E+00
RMM:  34     0.803472938858E+03   -0.34194E-02   -0.30335E-02   357   0.406E-02    0.161E+00
RMM:  35     0.803470654245E+03   -0.22846E-02   -0.27894E-02   406   0.422E-02    0.174E+00
RMM:  36     0.803467620268E+03   -0.30340E-02   -0.27573E-02   375   0.406E-02    0.188E+00
RMM:  37     0.803463398790E+03   -0.42215E-02   -0.28845E-02   413   0.415E-02    0.203E+00
RMM:  38     0.803460284106E+03   -0.31147E-02   -0.27717E-02   396   0.411E-02    0.217E+00
RMM:  39     0.803457163295E+03   -0.31208E-02   -0.27239E-02   377   0.400E-02    0.230E+00
RMM:  40     0.803454306309E+03   -0.28570E-02   -0.26304E-02   407   0.405E-02    0.244E+00
RMM:  41     0.803451679932E+03   -0.26264E-02   -0.25461E-02   388   0.408E-02    0.257E+00
RMM:  42     0.803449173645E+03   -0.25063E-02   -0.24503E-02   375   0.396E-02    0.269E+00
RMM:  43     0.803446573150E+03   -0.26005E-02   -0.23929E-02   374   0.399E-02    0.282E+00
RMM:  44     0.803444381334E+03   -0.21918E-02   -0.22939E-02   368   0.380E-02    0.294E+00
RMM:  45     0.803442586256E+03   -0.17951E-02   -0.21820E-02   308   0.332E-02    0.305E+00
RMM:  46     0.803440928298E+03   -0.16580E-02   -0.20756E-02   307   0.335E-02    0.316E+00
RMM:  47     0.803446157051E+03    0.52288E-02   -0.15494E-02   428   0.418E-02    0.322E+00
RMM:  48     0.803445313339E+03   -0.84371E-03   -0.14927E-02   435   0.381E-02    0.331E+00
RMM:  49     0.803446206103E+03    0.89276E-03   -0.13389E-02   400   0.369E-02    0.338E+00
RMM:  50     0.803446299542E+03    0.93440E-04   -0.12452E-02   481   0.380E-02    0.346E+00
RMM:  51     0.803447419266E+03    0.11197E-02   -0.11197E-02   509   0.388E-02    0.352E+00
RMM:  52     0.803442464501E+03   -0.49548E-02   -0.13124E-02   412   0.325E-02    0.362E+00
RMM:  53     0.803441125665E+03   -0.13388E-02   -0.12313E-02   412   0.313E-02    0.370E+00
RMM:  54     0.803439923599E+03   -0.12021E-02   -0.12166E-02   389   0.318E-02    0.377E+00
RMM:  55     0.803438533203E+03   -0.13904E-02   -0.11852E-02   417   0.317E-02    0.385E+00
RMM:  56     0.803437371269E+03   -0.11619E-02   -0.11624E-02   372   0.298E-02    0.393E+00
RMM:  57     0.803419643814E+03   -0.17727E-01   -0.22168E-02   620   0.499E-02    0.411E+00
RMM:  58     0.803417998482E+03   -0.16453E-02   -0.17067E-02   416   0.362E-02    0.421E+00
RMM:  59     0.803418053483E+03    0.55001E-04   -0.16347E-02   385   0.330E-02    0.430E+00
RMM:  60     0.803416430183E+03   -0.16233E-02   -0.15613E-02   427   0.363E-02
   6 F= 0.80341643E+03 E0= 0.80337988E+03  d E =-.989338E-01
       N       E                     dE             d eps       ncg     rms          rms(c)
RMM:   1     0.802067307412E+03   -0.13507E+01   -0.69442E+01   663   0.132E+01    0.467E+00
RMM:   2     0.801935279364E+03   -0.13203E+00   -0.13521E+01   800   0.664E+00    0.578E+00
RMM:   3     0.803315562051E+03    0.13803E+01   -0.38715E+00   877   0.249E+00    0.293E+00
RMM:   4     0.803340420881E+03    0.24859E-01   -0.20011E+00  1008   0.143E+00    0.189E+00
RMM:   5     0.803378803829E+03    0.38383E-01   -0.63288E-01  1006   0.760E-01    0.114E+00
RMM:   6     0.803360453138E+03   -0.18351E-01   -0.33587E-01  1018   0.475E-01    0.958E-01
RMM:   7     0.803352842021E+03   -0.76111E-02   -0.19314E-01  1018   0.355E-01    0.854E-01
RMM:   8     0.803355069513E+03    0.22275E-02   -0.10357E-01  1020   0.270E-01    0.629E-01
RMM:   9     0.803356301456E+03    0.12319E-02   -0.10913E-01  1001   0.270E-01    0.223E-01
RMM:  10     0.803348487830E+03   -0.78136E-02   -0.95554E-02  1003   0.204E-01    0.413E-01
RMM:  11     0.803347521563E+03   -0.96627E-03   -0.40178E-02   972   0.123E-01    0.477E-01
RMM:  12     0.803346533333E+03   -0.98823E-03   -0.30169E-02   971   0.858E-02    0.531E-01
RMM:  13     0.803341159868E+03   -0.53735E-02   -0.37578E-02   972   0.727E-02    0.725E-01
RMM:  14     0.803334879714E+03   -0.62802E-02   -0.43917E-02   605   0.623E-02    0.943E-01
RMM:  15     0.803347002947E+03    0.12123E-01   -0.36470E-02   805   0.180E-01    0.677E-01
RMM:  16     0.803348927643E+03    0.19247E-02   -0.15703E-02   884   0.958E-02    0.575E-01
RMM:  17     0.803349427305E+03    0.49966E-03   -0.85996E-03   676   0.539E-02    0.532E-01
RMM:  18     0.803350131025E+03    0.70372E-03   -0.60348E-03   806   0.506E-02    0.474E-01
RMM:  19     0.803350056275E+03   -0.74750E-04   -0.41857E-03   558   0.369E-02    0.449E-01
RMM:  20     0.803349655678E+03   -0.40060E-03   -0.40393E-03   439   0.275E-02    0.442E-01
RMM:  21     0.803350115999E+03    0.46032E-03   -0.39990E-03   694   0.443E-02    0.391E-01
RMM:  22     0.803350605067E+03    0.48907E-03   -0.82476E-03   802   0.653E-02    0.302E-01
RMM:  23     0.803350748993E+03    0.14393E-03   -0.74170E-03   743   0.489E-02    0.198E-01
RMM:  24     0.803350340372E+03   -0.40862E-03   -0.70741E-03   541   0.388E-02    0.119E-01
RMM:  25     0.803349779008E+03   -0.56136E-03   -0.58053E-03   515   0.368E-02    0.758E-02
RMM:  26     0.803348756828E+03   -0.10222E-02   -0.97078E-03   654   0.420E-02    0.118E-01
RMM:  27     0.803348063782E+03   -0.69305E-03   -0.72985E-03   486   0.354E-02    0.164E-01
RMM:  28     0.803347135079E+03   -0.92870E-03   -0.81699E-03   444   0.316E-02    0.233E-01
RMM:  29     0.803346471239E+03   -0.66384E-03   -0.69873E-03   445   0.342E-02    0.287E-01
RMM:  30     0.803345866715E+03   -0.60452E-03   -0.67621E-03   485   0.332E-02    0.342E-01
RMM:  31     0.803344911377E+03   -0.95534E-03   -0.73701E-03   488   0.331E-02    0.412E-01
RMM:  32     0.803344476345E+03   -0.43503E-03   -0.62381E-03   376   0.262E-02    0.462E-01
RMM:  33     0.803343215357E+03   -0.12610E-02   -0.77761E-03   438   0.289E-02    0.539E-01
RMM:  34     0.803341705026E+03   -0.15103E-02   -0.91161E-03   564   0.357E-02    0.629E-01
RMM:  35     0.803342373533E+03    0.66851E-03   -0.56424E-03   416   0.324E-02    0.656E-01
RMM:  36     0.803340100169E+03   -0.22734E-02   -0.89449E-03   590   0.388E-02    0.752E-01
RMM:  37     0.803340770587E+03    0.67042E-03   -0.55321E-03   463   0.344E-02    0.782E-01
RMM:  38     0.803341070523E+03    0.29994E-03   -0.47576E-03   460   0.308E-02    0.816E-01
RMM:  39     0.803341964719E+03    0.89420E-03   -0.35592E-03   489   0.339E-02    0.829E-01
RMM:  40     0.803343197388E+03    0.12327E-02   -0.28064E-03   598   0.379E-02    0.823E-01
RMM:  41     0.803344850979E+03    0.16536E-02   -0.23496E-03   631   0.385E-02    0.790E-01
RMM:  42     0.803345359794E+03    0.50882E-03   -0.15706E-03   461   0.281E-02    0.778E-01
RMM:  43     0.803345272017E+03   -0.87777E-04   -0.13478E-03   418   0.257E-02    0.779E-01
RMM:  44     0.803344699932E+03   -0.57209E-03   -0.13616E-03   390   0.216E-02    0.793E-01
RMM:  45     0.803344018449E+03   -0.68148E-03   -0.15496E-03   411   0.241E-02    0.812E-01
RMM:  46     0.803344304879E+03    0.28643E-03   -0.13445E-03   473   0.267E-02    0.814E-01
RMM:  47     0.803344829783E+03    0.52490E-03   -0.24217E-03   584   0.338E-02    0.802E-01
RMM:  48     0.803345976228E+03    0.11464E-02   -0.23866E-03   571   0.326E-02    0.767E-01
RMM:  49     0.803345891250E+03   -0.84978E-04   -0.17408E-03   442   0.267E-02    0.759E-01
RMM:  50     0.803345724461E+03   -0.16679E-03   -0.17561E-03   419   0.250E-02    0.755E-01
RMM:  51     0.803345553638E+03   -0.17082E-03   -0.16812E-03   420   0.253E-02    0.751E-01
RMM:  52     0.803345834849E+03    0.28121E-03   -0.31785E-03   584   0.307E-02    0.728E-01
RMM:  53     0.803345917016E+03    0.82167E-04   -0.27283E-03   464   0.244E-02    0.711E-01
RMM:  54     0.803345637203E+03   -0.27981E-03   -0.24314E-03   375   0.226E-02    0.705E-01
RMM:  55     0.803345320900E+03   -0.31630E-03   -0.21514E-03   380   0.232E-02    0.703E-01
RMM:  56     0.803345015067E+03   -0.30583E-03   -0.19004E-03   386   0.234E-02    0.702E-01
RMM:  57     0.803344228146E+03   -0.78692E-03   -0.19062E-03   457   0.261E-02    0.716E-01
RMM:  58     0.803344071012E+03   -0.15713E-03   -0.17230E-03   383   0.210E-02    0.720E-01
RMM:  59     0.803343912161E+03   -0.15885E-03   -0.17293E-03   345   0.192E-02    0.724E-01
RMM:  60     0.803343746351E+03   -0.16581E-03   -0.16470E-03   326   0.181E-02
   7 F= 0.80334375E+03 E0= 0.80331136E+03  d E =-.171618E+00
       N       E                     dE             d eps       ncg     rms          rms(c)
RMM:   1     0.797752288119E+03   -0.55916E+01   -0.28249E+02   662   0.264E+01    0.413E+00
RMM:   2     0.802390788198E+03    0.46385E+01    0.36642E+01   742   0.103E+01    0.531E+00
RMM:   3     0.803300554411E+03    0.90977E+00   -0.32132E+00   916   0.297E+00    0.267E+00
RMM:   4     0.803231542350E+03   -0.69012E-01   -0.20496E+00  1018   0.170E+00    0.180E+00
RMM:   5     0.803249924723E+03    0.18382E-01   -0.58545E-01  1001   0.968E-01    0.117E+00
RMM:   6     0.803210955583E+03   -0.38969E-01   -0.54770E-01  1023   0.806E-01    0.129E+00
RMM:   7     0.803238434403E+03    0.27479E-01   -0.17982E-01  1006   0.560E-01    0.797E-01
RMM:   8     0.803239117020E+03    0.68262E-03   -0.15064E-01  1025   0.374E-01    0.428E-01
RMM:   9     0.803233885330E+03   -0.52317E-02   -0.12443E-01  1019   0.284E-01    0.307E-01
RMM:  10     0.803226805011E+03   -0.70803E-02   -0.85814E-02  1014   0.195E-01    0.495E-01
RMM:  11     0.803225468903E+03   -0.13361E-02   -0.40340E-02   977   0.133E-01    0.548E-01
RMM:  12     0.803220208554E+03   -0.52603E-02   -0.44105E-02   867   0.915E-02    0.727E-01
RMM:  13     0.803226707840E+03    0.64993E-02   -0.27885E-02   934   0.147E-01    0.555E-01
RMM:  14     0.803227233741E+03    0.52590E-03   -0.13322E-02   950   0.819E-02    0.497E-01
RMM:  15     0.803227004177E+03   -0.22956E-03   -0.79430E-03   646   0.517E-02    0.486E-01
RMM:  16     0.803227176547E+03    0.17237E-03   -0.67402E-03   664   0.503E-02    0.457E-01
RMM:  17     0.803227099321E+03   -0.77225E-04   -0.54617E-03   624   0.421E-02    0.437E-01
RMM:  18     0.803225909031E+03   -0.11903E-02   -0.57389E-03   526   0.400E-02    0.470E-01
RMM:  19     0.803226306654E+03    0.39762E-03   -0.48389E-03   596   0.401E-02    0.438E-01
RMM:  20     0.803227535872E+03    0.12292E-02   -0.80676E-03   859   0.744E-02    0.307E-01
RMM:  21     0.803227551680E+03    0.15808E-04   -0.77962E-03   770   0.575E-02    0.201E-01
RMM:  22     0.803226980209E+03   -0.57147E-03   -0.56402E-03   518   0.354E-02    0.160E-01
RMM:  23     0.803226371145E+03   -0.60906E-03   -0.69838E-03   634   0.392E-02    0.117E-01
RMM:  24     0.803225816977E+03   -0.55417E-03   -0.55123E-03   475   0.345E-02    0.107E-01
RMM:  25     0.803225287555E+03   -0.52942E-03   -0.53550E-03   441   0.290E-02    0.115E-01
RMM:  26     0.803224691207E+03   -0.59635E-03   -0.55157E-03   440   0.321E-02    0.146E-01
RMM:  27     0.803223912331E+03   -0.77888E-03   -0.64190E-03   567   0.364E-02    0.202E-01
RMM:  28     0.803223811933E+03   -0.10040E-03   -0.45099E-03   463   0.355E-02    0.213E-01
RMM:  29     0.803224082769E+03    0.27084E-03   -0.44849E-03   746   0.493E-02    0.171E-01
RMM:  30     0.803223883703E+03   -0.19907E-03   -0.27532E-03   456   0.309E-02    0.174E-01
RMM:  31     0.803223585386E+03   -0.29832E-03   -0.26751E-03   467   0.275E-02    0.191E-01
RMM:  32     0.803223321310E+03   -0.26408E-03   -0.25447E-03   434   0.268E-02    0.208E-01
RMM:  33     0.803223138479E+03   -0.18283E-03   -0.23243E-03   484   0.293E-02    0.220E-01
RMM:  34     0.803223037184E+03   -0.10130E-03   -0.22414E-03   526   0.287E-02    0.221E-01
RMM:  35     0.803222897210E+03   -0.13997E-03   -0.20321E-03   416   0.223E-02    0.224E-01
RMM:  36     0.803222670715E+03   -0.22649E-03   -0.19178E-03   379   0.209E-02    0.235E-01
RMM:  37     0.803222499472E+03   -0.17124E-03   -0.18048E-03   385   0.230E-02    0.245E-01
RMM:  38     0.803222304730E+03   -0.19474E-03   -0.18224E-03   407   0.261E-02    0.255E-01
RMM:  39     0.803222185886E+03   -0.11884E-03   -0.17950E-03   497   0.291E-02    0.258E-01
RMM:  40     0.803221978206E+03   -0.20768E-03   -0.18160E-03   377   0.225E-02    0.266E-01
RMM:  41     0.803222063275E+03    0.85069E-04   -0.18484E-03   478   0.248E-02    0.253E-01
RMM:  42     0.803222234310E+03    0.17104E-03   -0.33218E-03   632   0.391E-02    0.196E-01
RMM:  43     0.803222226818E+03   -0.74926E-05   -0.39987E-03   702   0.434E-02    0.128E-01
RMM:  44     0.803221978388E+03   -0.24843E-03   -0.32337E-03   579   0.353E-02    0.937E-02
RMM:  45     0.803221714605E+03   -0.26378E-03   -0.28457E-03   474   0.265E-02    0.773E-02
RMM:  46     0.803221473072E+03   -0.24153E-03   -0.23503E-03   409   0.246E-02    0.748E-02
RMM:  47     0.803221106982E+03   -0.36609E-03   -0.38231E-03   591   0.331E-02    0.901E-02
RMM:  48     0.803220816843E+03   -0.29014E-03   -0.28738E-03   490   0.274E-02    0.114E-01
RMM:  49     0.803220439649E+03   -0.37719E-03   -0.34669E-03   457   0.276E-02    0.150E-01
RMM:  50     0.803220079005E+03   -0.36064E-03   -0.32185E-03   445   0.294E-02    0.185E-01
RMM:  51     0.803219882189E+03   -0.19682E-03   -0.27393E-03   439   0.275E-02    0.210E-01
RMM:  52     0.803219817349E+03   -0.64840E-04   -0.22857E-03   490   0.287E-02    0.223E-01
RMM:  53     0.803219592157E+03   -0.22519E-03   -0.22143E-03   425   0.241E-02    0.244E-01
RMM:  54     0.803219366240E+03   -0.22592E-03   -0.22019E-03   387   0.221E-02    0.267E-01
RMM:  55     0.803219163267E+03   -0.20297E-03   -0.20754E-03   394   0.215E-02    0.288E-01
RMM:  56     0.803218952114E+03   -0.21115E-03   -0.20758E-03   388   0.224E-02    0.309E-01
RMM:  57     0.803218848811E+03   -0.10330E-03   -0.18939E-03   378   0.208E-02    0.324E-01
RMM:  58     0.803218601986E+03   -0.24683E-03   -0.19583E-03   352   0.207E-02    0.345E-01
RMM:  59     0.803218439544E+03   -0.16244E-03   -0.19087E-03   358   0.214E-02    0.363E-01
RMM:  60     0.803218272241E+03   -0.16730E-03   -0.18497E-03   364   0.201E-02
   8 F= 0.80321827E+03 E0= 0.80319212E+03  d E =-.297092E+00
       N       E                     dE             d eps       ncg     rms          rms(c)
RMM:   1     0.802335380561E+03   -0.88306E+00   -0.41085E+01   660   0.103E+01    0.151E+00
RMM:   2     0.803052126438E+03    0.71675E+00    0.57459E+00   794   0.395E+00    0.141E+00
RMM:   3     0.803081250725E+03    0.29124E-01   -0.50536E-01  1000   0.101E+00    0.804E-01
RMM:   4     0.803079575192E+03   -0.16755E-02   -0.18640E-01  1009   0.546E-01    0.529E-01
RMM:   5     0.803078733118E+03   -0.84207E-03   -0.80315E-02  1004   0.353E-01    0.388E-01
RMM:   6     0.803077271052E+03   -0.14621E-02   -0.54693E-02  1016   0.279E-01    0.331E-01
RMM:   7     0.803079646182E+03    0.23751E-02   -0.21085E-02  1005   0.190E-01    0.156E-01
RMM:   8     0.803079011102E+03   -0.63508E-03   -0.14881E-02  1016   0.124E-01    0.875E-02
RMM:   9     0.803078530712E+03   -0.48039E-03   -0.79023E-03   987   0.857E-02    0.900E-02
RMM:  10     0.803078228678E+03   -0.30203E-03   -0.45651E-03   849   0.567E-02    0.102E-01
RMM:  11     0.803078060564E+03   -0.16811E-03   -0.29089E-03   740   0.446E-02    0.100E-01
RMM:  12     0.803077827947E+03   -0.23262E-03   -0.23962E-03   604   0.353E-02    0.106E-01
RMM:  13     0.803077498832E+03   -0.32911E-03   -0.29839E-03   634   0.353E-02    0.125E-01
RMM:  14     0.803076765909E+03   -0.73292E-03   -0.40016E-03   703   0.433E-02    0.193E-01
RMM:  15     0.803077183000E+03    0.41709E-03   -0.28318E-03   724   0.509E-02    0.150E-01
RMM:  16     0.803076910334E+03   -0.27267E-03   -0.10556E-02   883   0.805E-02    0.109E-01
RMM:  17     0.803076821043E+03   -0.89291E-04   -0.28605E-03   486   0.331E-02    0.116E-01
RMM:  18     0.803076705329E+03   -0.11571E-03   -0.26466E-03   503   0.347E-02    0.122E-01
RMM:  19     0.803076596822E+03   -0.10851E-03   -0.18758E-03   533   0.286E-02    0.123E-01
RMM:  20     0.803076413724E+03   -0.18310E-03   -0.18311E-03   443   0.262E-02    0.135E-01
RMM:  21     0.803076346586E+03   -0.67138E-04   -0.15856E-03   435   0.240E-02    0.135E-01
RMM:  22     0.803076242800E+03   -0.10379E-03   -0.14690E-03   451   0.254E-02    0.139E-01
RMM:  23     0.803076022804E+03   -0.22000E-03   -0.16309E-03   476   0.263E-02    0.153E-01
RMM:  24     0.803075221585E+03   -0.80122E-03   -0.37705E-03   594   0.371E-02    0.231E-01
RMM:  25     0.803074340614E+03   -0.88097E-03   -0.45300E-03   548   0.368E-02    0.308E-01
RMM:  26     0.803074250099E+03   -0.90515E-04   -0.29658E-03   449   0.314E-02    0.335E-01
RMM:  27     0.803073378074E+03   -0.87203E-03   -0.45187E-03   579   0.344E-02    0.404E-01
RMM:  28     0.803073460965E+03    0.82891E-04   -0.27789E-03   453   0.300E-02    0.426E-01
RMM:  29     0.803073291011E+03   -0.16995E-03   -0.28341E-03   472   0.280E-02    0.455E-01
RMM:  30     0.803073012825E+03   -0.27819E-03   -0.26160E-03   425   0.260E-02    0.486E-01
RMM:  31     0.803073493482E+03    0.48066E-03   -0.20217E-03   495   0.288E-02    0.487E-01
RMM:  32     0.803073582059E+03    0.88577E-04   -0.15701E-03   452   0.273E-02    0.493E-01
RMM:  33     0.803072975058E+03   -0.60700E-03   -0.19412E-03   424   0.242E-02    0.524E-01
RMM:  34     0.803072549307E+03   -0.42575E-03   -0.20389E-03   453   0.250E-02    0.552E-01
RMM:  35     0.803072611658E+03    0.62352E-04   -0.16848E-03   436   0.248E-02    0.565E-01
RMM:  36     0.803072395176E+03   -0.21648E-03   -0.17582E-03   426   0.245E-02    0.585E-01
RMM:  37     0.803072243847E+03   -0.15133E-03   -0.16686E-03   402   0.221E-02    0.603E-01
RMM:  38     0.803072097800E+03   -0.14605E-03   -0.16021E-03   321   0.176E-02    0.621E-01
RMM:  39     0.803071933618E+03   -0.16418E-03   -0.15761E-03   305   0.182E-02    0.638E-01
RMM:  40     0.803071730586E+03   -0.20303E-03   -0.15870E-03   315   0.188E-02    0.656E-01
RMM:  41     0.803071574318E+03   -0.15627E-03   -0.15414E-03   298   0.175E-02    0.672E-01
RMM:  42     0.803071402646E+03   -0.17167E-03   -0.15368E-03   289   0.167E-02    0.689E-01
RMM:  43     0.803071261514E+03   -0.14113E-03   -0.14874E-03   257   0.147E-02    0.705E-01
RMM:  44     0.803071108416E+03   -0.15310E-03   -0.14421E-03   269   0.160E-02    0.720E-01
RMM:  45     0.803070966463E+03   -0.14195E-03   -0.14105E-03   271   0.166E-02    0.735E-01
RMM:  46     0.803070815694E+03   -0.15077E-03   -0.14128E-03   281   0.170E-02    0.750E-01
RMM:  47     0.803072304577E+03    0.14889E-02   -0.15978E-03   478   0.290E-02    0.720E-01
RMM:  48     0.803072029163E+03   -0.27541E-03   -0.10300E-03   381   0.193E-02    0.724E-01
RMM:  49     0.803071923584E+03   -0.10558E-03   -0.10750E-03   374   0.204E-02    0.728E-01
RMM:  50     0.803071829642E+03   -0.93941E-04   -0.10037E-03   395   0.222E-02    0.732E-01
RMM:  51     0.803071845988E+03    0.16346E-04   -0.97393E-04   451   0.263E-02
   9 F= 0.80307185E+03 E0= 0.80305064E+03  d E =-.146426E+00
       N       E                     dE             d eps       ncg     rms          rms(c)
RMM:   1     0.802669969717E+03   -0.40186E+00   -0.19624E+01   668   0.715E+00    0.118E+00
RMM:   2     0.802951736516E+03    0.28177E+00    0.20240E+00   799   0.287E+00    0.140E+00
RMM:   3     0.803002473966E+03    0.50737E-01   -0.29907E-01   987   0.787E-01    0.762E-01
RMM:   4     0.803002883379E+03    0.40941E-03   -0.13932E-01  1016   0.440E-01    0.480E-01
RMM:   5     0.803004139434E+03    0.12561E-02   -0.39443E-02   969   0.276E-01    0.312E-01
RMM:   6     0.803003312518E+03   -0.82692E-03   -0.27801E-02  1019   0.192E-01    0.251E-01
RMM:   7     0.803004292362E+03    0.97984E-03   -0.13687E-02  1018   0.150E-01    0.150E-01
RMM:   8     0.803004345022E+03    0.52660E-04   -0.85401E-03  1013   0.924E-02    0.636E-02
RMM:   9     0.803003926878E+03   -0.41814E-03   -0.59469E-03   962   0.631E-02    0.680E-02
RMM:  10     0.803003645268E+03   -0.28161E-03   -0.37193E-03   780   0.469E-02    0.848E-02
RMM:  11     0.803003478477E+03   -0.16679E-03   -0.23847E-03   597   0.380E-02    0.944E-02
RMM:  12     0.803003223917E+03   -0.25456E-03   -0.22317E-03   486   0.317E-02    0.119E-01
RMM:  13     0.803003181345E+03   -0.42572E-04   -0.24543E-03   650   0.402E-02    0.111E-01
RMM:  14     0.803003135749E+03   -0.45596E-04   -0.15380E-03   553   0.363E-02    0.102E-01
RMM:  15     0.803003015300E+03   -0.12045E-03   -0.12207E-03   454   0.284E-02    0.107E-01
RMM:  16     0.803002890797E+03   -0.12450E-03   -0.11951E-03   469   0.262E-02    0.112E-01
RMM:  17     0.803002768818E+03   -0.12198E-03   -0.11886E-03   446   0.255E-02    0.116E-01
RMM:  18     0.803002646795E+03   -0.12202E-03   -0.12487E-03   490   0.249E-02    0.119E-01
RMM:  19     0.803002534314E+03   -0.11248E-03   -0.11472E-03   448   0.220E-02    0.122E-01
RMM:  20     0.803002430701E+03   -0.10361E-03   -0.10884E-03   442   0.221E-02    0.125E-01
RMM:  21     0.803002332331E+03   -0.98370E-04   -0.11341E-03   434   0.227E-02    0.125E-01
RMM:  22     0.803002248959E+03   -0.83372E-04   -0.10853E-03   458   0.238E-02    0.122E-01
RMM:  23     0.803002155435E+03   -0.93524E-04   -0.10799E-03   441   0.239E-02    0.120E-01
RMM:  24     0.803002050400E+03   -0.10504E-03   -0.10381E-03   409   0.226E-02    0.119E-01
RMM:  25     0.803001947493E+03   -0.10291E-03   -0.10129E-03   395   0.212E-02    0.119E-01
RMM:  26     0.803001852585E+03   -0.94908E-04   -0.99415E-04   359   0.205E-02
  10 F= 0.80300185E+03 E0= 0.80298424E+03  d E =-.216420E+00
       N       E                     dE             d eps       ncg     rms          rms(c)
RMM:   1     0.801608159720E+03   -0.13938E+01   -0.78194E+01   665   0.143E+01    0.203E+00
RMM:   2     0.802876215982E+03    0.12681E+01    0.10362E+01   783   0.536E+00    0.204E+00
RMM:   3     0.802955616816E+03    0.79401E-01   -0.88653E-01   976   0.145E+00    0.106E+00
RMM:   4     0.802948210747E+03   -0.74061E-02   -0.35420E-01  1005   0.768E-01    0.707E-01
RMM:   5     0.802941380184E+03   -0.68306E-02   -0.18186E-01  1013   0.506E-01    0.567E-01
RMM:   6     0.802941450073E+03    0.69888E-04   -0.93364E-02  1010   0.391E-01    0.376E-01
RMM:   7     0.802942934191E+03    0.14841E-02   -0.42957E-02  1018   0.255E-01    0.160E-01
RMM:   8     0.802941485084E+03   -0.14491E-02   -0.23752E-02  1015   0.164E-01    0.115E-01
RMM:   9     0.802940815995E+03   -0.66909E-03   -0.11193E-02   987   0.108E-01    0.105E-01
RMM:  10     0.802940339331E+03   -0.47666E-03   -0.66093E-03   916   0.731E-02    0.102E-01
RMM:  11     0.802940048486E+03   -0.29084E-03   -0.45212E-03   881   0.566E-02    0.873E-02
RMM:  12     0.802939821824E+03   -0.22666E-03   -0.33872E-03   770   0.453E-02    0.665E-02
RMM:  13     0.802939629913E+03   -0.19191E-03   -0.35272E-03   765   0.453E-02    0.314E-02
RMM:  14     0.802939304881E+03   -0.32503E-03   -0.32140E-03   645   0.389E-02    0.483E-02
RMM:  15     0.802939116445E+03   -0.18844E-03   -0.22733E-03   494   0.319E-02    0.490E-02
RMM:  16     0.802938933308E+03   -0.18314E-03   -0.21150E-03   504   0.311E-02    0.466E-02
RMM:  17     0.802938733663E+03   -0.19964E-03   -0.19838E-03   522   0.331E-02    0.509E-02
RMM:  18     0.802938542720E+03   -0.19094E-03   -0.18703E-03   455   0.256E-02    0.569E-02
RMM:  19     0.802938353040E+03   -0.18968E-03   -0.19086E-03   474   0.256E-02    0.609E-02
RMM:  20     0.802938164379E+03   -0.18866E-03   -0.18529E-03   430   0.233E-02    0.663E-02
RMM:  21     0.802937981475E+03   -0.18290E-03   -0.17711E-03   441   0.248E-02    0.727E-02
RMM:  22     0.802937806578E+03   -0.17490E-03   -0.17284E-03   431   0.240E-02    0.791E-02
RMM:  23     0.802937632602E+03   -0.17398E-03   -0.16910E-03   415   0.240E-02    0.859E-02
RMM:  24     0.802937460934E+03   -0.17167E-03   -0.16875E-03   444   0.236E-02    0.928E-02
RMM:  25     0.802937295665E+03   -0.16527E-03   -0.16139E-03   365   0.200E-02    0.996E-02
RMM:  26     0.802937139087E+03   -0.15658E-03   -0.15583E-03   347   0.195E-02    0.106E-01
RMM:  27     0.802936976697E+03   -0.16239E-03   -0.15624E-03   345   0.207E-02    0.113E-01
RMM:  28     0.802936821811E+03   -0.15489E-03   -0.15199E-03   330   0.197E-02    0.121E-01
RMM:  29     0.802936670696E+03   -0.15112E-03   -0.14897E-03   322   0.197E-02    0.128E-01
RMM:  30     0.802936521232E+03   -0.14946E-03   -0.14657E-03   321   0.195E-02    0.135E-01
RMM:  31     0.802936373707E+03   -0.14752E-03   -0.14460E-03   307   0.188E-02    0.142E-01
RMM:  32     0.802936228325E+03   -0.14538E-03   -0.14256E-03   290   0.182E-02    0.149E-01
RMM:  33     0.802936086284E+03   -0.14204E-03   -0.13936E-03   287   0.177E-02    0.156E-01
RMM:  34     0.802935946158E+03   -0.14013E-03   -0.13753E-03   281   0.172E-02    0.163E-01
RMM:  35     0.802935796409E+03   -0.14975E-03   -0.13846E-03   293   0.175E-02    0.170E-01
RMM:  36     0.802935648748E+03   -0.14766E-03   -0.13655E-03   331   0.178E-02    0.178E-01
RMM:  37     0.802935470628E+03   -0.17812E-03   -0.13988E-03   402   0.204E-02    0.188E-01
RMM:  38     0.802935211864E+03   -0.25876E-03   -0.18606E-03   513   0.301E-02    0.205E-01
RMM:  39     0.802935058347E+03   -0.15352E-03   -0.15617E-03   418   0.254E-02    0.216E-01
RMM:  40     0.802934957720E+03   -0.10063E-03   -0.13281E-03   460   0.259E-02    0.224E-01
RMM:  41     0.802934846169E+03   -0.11155E-03   -0.13557E-03   439   0.258E-02    0.231E-01
RMM:  42     0.802934729300E+03   -0.11687E-03   -0.13139E-03   430   0.243E-02    0.239E-01
RMM:  43     0.802934617527E+03   -0.11177E-03   -0.12752E-03   383   0.205E-02    0.247E-01
RMM:  44     0.802934503249E+03   -0.11428E-03   -0.12434E-03   352   0.201E-02    0.254E-01
RMM:  45     0.802934389121E+03   -0.11413E-03   -0.12396E-03   388   0.208E-02    0.260E-01
RMM:  46     0.802934274956E+03   -0.11417E-03   -0.12057E-03   382   0.210E-02    0.267E-01
RMM:  47     0.802934139011E+03   -0.13594E-03   -0.12295E-03   403   0.222E-02    0.275E-01
RMM:  48     0.802934038506E+03   -0.10051E-03   -0.11806E-03   382   0.223E-02    0.281E-01
RMM:  49     0.802933927667E+03   -0.11084E-03   -0.11677E-03   380   0.204E-02    0.287E-01
RMM:  50     0.802933812175E+03   -0.11549E-03   -0.11687E-03   330   0.190E-02    0.294E-01
RMM:  51     0.802933694126E+03   -0.11805E-03   -0.11526E-03   382   0.193E-02    0.302E-01
RMM:  52     0.802933541187E+03   -0.15294E-03   -0.11900E-03   428   0.223E-02    0.310E-01
RMM:  53     0.802933401545E+03   -0.13964E-03   -0.11487E-03   407   0.213E-02    0.319E-01
RMM:  54     0.802933275191E+03   -0.12635E-03   -0.11319E-03   387   0.205E-02    0.328E-01
RMM:  55     0.802933169847E+03   -0.10534E-03   -0.11162E-03   384   0.221E-02    0.335E-01
RMM:  56     0.802933054772E+03   -0.11508E-03   -0.11005E-03   377   0.208E-02    0.343E-01
RMM:  57     0.802932930161E+03   -0.12461E-03   -0.11151E-03   376   0.213E-02    0.352E-01
RMM:  58     0.802932845117E+03   -0.85044E-04   -0.10789E-03   313   0.178E-02    0.359E-01
RMM:  59     0.802932770571E+03   -0.74546E-04   -0.10410E-03   308   0.174E-02    0.365E-01
RMM:  60     0.802932671432E+03   -0.99139E-04   -0.10479E-03   305   0.180E-02
  11 F= 0.80293267E+03 E0= 0.80292196E+03  d E =-.285601E+00
       N       E                     dE             d eps       ncg     rms          rms(c)
RMM:   1     0.801730781408E+03   -0.12020E+01   -0.62246E+01   666   0.128E+01    0.192E+00
RMM:   2     0.802628752808E+03    0.89797E+00    0.75370E+00   791   0.479E+00    0.251E+00
RMM:   3     0.802816036455E+03    0.18728E+00   -0.76431E-01   968   0.133E+00    0.105E+00
RMM:   4     0.802799432580E+03   -0.16604E-01   -0.41271E-01  1023   0.760E-01    0.763E-01
RMM:   5     0.802801955981E+03    0.25234E-02   -0.13876E-01  1010   0.477E-01    0.475E-01
RMM:   6     0.802793912514E+03   -0.80435E-02   -0.12236E-01  1025   0.376E-01    0.561E-01
RMM:   7     0.802800487135E+03    0.65746E-02   -0.36276E-02   998   0.255E-01    0.344E-01
RMM:   8     0.802800232544E+03   -0.25459E-03   -0.30159E-02  1021   0.173E-01    0.202E-01
RMM:   9     0.802799803003E+03   -0.42954E-03   -0.18542E-02  1013   0.122E-01    0.114E-01
RMM:  10     0.802799021044E+03   -0.78196E-03   -0.11678E-02   991   0.843E-02    0.159E-01
RMM:  11     0.802798925849E+03   -0.95195E-04   -0.53176E-03   895   0.598E-02    0.160E-01
RMM:  12     0.802798823079E+03   -0.10277E-03   -0.34527E-03   720   0.456E-02    0.158E-01
RMM:  13     0.802798637769E+03   -0.18531E-03   -0.23894E-03   553   0.361E-02    0.168E-01
RMM:  14     0.802798051186E+03   -0.58658E-03   -0.33792E-03   499   0.347E-02    0.222E-01
RMM:  15     0.802798852135E+03    0.80095E-03   -0.75395E-03   910   0.866E-02    0.481E-02
RMM:  16     0.802798472222E+03   -0.37991E-03   -0.46316E-03   727   0.483E-02    0.702E-02
RMM:  17     0.802798364959E+03   -0.10726E-03   -0.22212E-03   469   0.311E-02    0.748E-02
RMM:  18     0.802798241276E+03   -0.12368E-03   -0.16690E-03   534   0.311E-02    0.845E-02
RMM:  19     0.802798122136E+03   -0.11914E-03   -0.14479E-03   465   0.248E-02    0.955E-02
RMM:  20     0.802797993777E+03   -0.12836E-03   -0.13654E-03   473   0.249E-02    0.107E-01
RMM:  21     0.802797865439E+03   -0.12834E-03   -0.12637E-03   397   0.213E-02    0.120E-01
RMM:  22     0.802797762531E+03   -0.10291E-03   -0.11929E-03   405   0.221E-02    0.130E-01
RMM:  23     0.802797651690E+03   -0.11084E-03   -0.11709E-03   395   0.227E-02    0.140E-01
RMM:  24     0.802797481913E+03   -0.16978E-03   -0.11890E-03   435   0.227E-02    0.159E-01
RMM:  25     0.802797524837E+03    0.42924E-04   -0.10111E-03   432   0.224E-02    0.153E-01
RMM:  26     0.802797558386E+03    0.33550E-04   -0.10372E-03   482   0.269E-02    0.138E-01
RMM:  27     0.802797538251E+03   -0.20136E-04   -0.11714E-03   496   0.294E-02    0.117E-01
RMM:  28     0.802797459214E+03   -0.79037E-04   -0.99755E-04   495   0.277E-02
  12 F= 0.80279746E+03 E0= 0.80278888E+03  d E =-.135212E+00
       N       E                     dE             d eps       ncg     rms          rms(c)
RMM:   1     0.801452575012E+03   -0.13450E+01   -0.72190E+01   666   0.138E+01    0.206E+00
RMM:   2     0.802501147272E+03    0.10486E+01    0.89417E+00   783   0.518E+00    0.277E+00
RMM:   3     0.802728146214E+03    0.22700E+00   -0.87639E-01   959   0.143E+00    0.109E+00
RMM:   4     0.802706531159E+03   -0.21615E-01   -0.46333E-01  1018   0.800E-01    0.804E-01
RMM:   5     0.802707875015E+03    0.13439E-02   -0.16893E-01  1017   0.503E-01    0.517E-01
RMM:   6     0.802701087561E+03   -0.67875E-02   -0.12179E-01  1023   0.398E-01    0.535E-01
RMM:   7     0.802706959138E+03    0.58716E-02   -0.39762E-02  1012   0.259E-01    0.309E-01
RMM:   8     0.802706000142E+03   -0.95900E-03   -0.34520E-02  1025   0.181E-01    0.196E-01
RMM:   9     0.802705377693E+03   -0.62245E-03   -0.19813E-02  1017   0.126E-01    0.142E-01
RMM:  10     0.802704711532E+03   -0.66616E-03   -0.11202E-02  1001   0.846E-02    0.164E-01
RMM:  11     0.802704598634E+03   -0.11290E-03   -0.56876E-03   930   0.605E-02    0.153E-01
RMM:  12     0.802704396106E+03   -0.20253E-03   -0.36819E-03   699   0.443E-02    0.155E-01
RMM:  13     0.802704239930E+03   -0.15618E-03   -0.26516E-03   566   0.380E-02    0.156E-01
RMM:  14     0.802704249842E+03    0.99120E-05   -0.26350E-03   672   0.423E-02    0.125E-01
RMM:  15     0.802704144739E+03   -0.10510E-03   -0.61089E-03   880   0.651E-02    0.616E-02
RMM:  16     0.802703735133E+03   -0.40961E-03   -0.42938E-03   622   0.379E-02    0.102E-01
RMM:  17     0.802703658296E+03   -0.76837E-04   -0.24720E-03   543   0.324E-02    0.980E-02
RMM:  18     0.802703628762E+03   -0.29535E-04   -0.19986E-03   549   0.357E-02    0.789E-02
RMM:  19     0.802703542931E+03   -0.85830E-04   -0.21809E-03   627   0.379E-02    0.455E-02
RMM:  20     0.802703415780E+03   -0.12715E-03   -0.15848E-03   478   0.301E-02    0.322E-02
RMM:  21     0.802703283673E+03   -0.13211E-03   -0.13778E-03   507   0.279E-02    0.247E-02
RMM:  22     0.802703144325E+03   -0.13935E-03   -0.13452E-03   493   0.274E-02    0.211E-02
RMM:  23     0.802703010932E+03   -0.13339E-03   -0.12750E-03   483   0.266E-02    0.234E-02
RMM:  24     0.802702888572E+03   -0.12236E-03   -0.12597E-03   450   0.229E-02    0.174E-02
RMM:  25     0.802702775783E+03   -0.11279E-03   -0.11450E-03   421   0.234E-02    0.145E-02
RMM:  26     0.802702657687E+03   -0.11810E-03   -0.11629E-03   469   0.275E-02    0.186E-02
RMM:  27     0.802702551482E+03   -0.10620E-03   -0.10508E-03   425   0.239E-02    0.219E-02
RMM:  28     0.802702439536E+03   -0.11195E-03   -0.10753E-03   373   0.201E-02    0.280E-02
RMM:  29     0.802702333906E+03   -0.10563E-03   -0.10342E-03   336   0.189E-02    0.331E-02
RMM:  30     0.802702230715E+03   -0.10319E-03   -0.10002E-03   339   0.188E-02    0.388E-02
RMM:  31     0.802702130874E+03   -0.99841E-04   -0.97892E-04   319   0.191E-02
  13 F= 0.80270213E+03 E0= 0.80269483E+03  d E =-.230541E+00
       N       E                     dE             d eps       ncg     rms          rms(c)
RMM:   1     0.797503853713E+03   -0.51984E+01   -0.28903E+02   666   0.275E+01    0.432E+00
RMM:   2     0.801268748944E+03    0.37649E+01    0.34224E+01   724   0.107E+01    0.662E+00
RMM:   3     0.802797150221E+03    0.15284E+01   -0.36126E+00   891   0.330E+00    0.293E+00
RMM:   4     0.802712253691E+03   -0.84897E-01   -0.27223E+00  1025   0.185E+00    0.191E+00
RMM:   5     0.802729883552E+03    0.17630E-01   -0.82506E-01  1021   0.110E+00    0.113E+00
RMM:   6     0.802690827380E+03   -0.39056E-01   -0.55645E-01  1025   0.827E-01    0.115E+00
RMM:   7     0.802710620594E+03    0.19793E-01   -0.19436E-01  1018   0.555E-01    0.684E-01
RMM:   8     0.802705589961E+03   -0.50306E-02   -0.16565E-01  1026   0.386E-01    0.489E-01
RMM:   9     0.802703566802E+03   -0.20232E-02   -0.10274E-01  1027   0.280E-01    0.344E-01
RMM:  10     0.802699562632E+03   -0.40042E-02   -0.65717E-02  1028   0.192E-01    0.399E-01
RMM:  11     0.802698824543E+03   -0.73809E-03   -0.30877E-02  1019   0.134E-01    0.396E-01
RMM:  12     0.802697982610E+03   -0.84193E-03   -0.19554E-02   986   0.904E-02    0.414E-01
RMM:  13     0.802696120520E+03   -0.18621E-02   -0.16035E-02   768   0.623E-02    0.492E-01
RMM:  14     0.802698897775E+03    0.27773E-02   -0.19948E-02   895   0.123E-01    0.307E-01
RMM:  15     0.802699260764E+03    0.36299E-03   -0.10310E-02   941   0.771E-02    0.208E-01
RMM:  16     0.802698866288E+03   -0.39448E-03   -0.63980E-03   648   0.459E-02    0.177E-01
RMM:  17     0.802698415761E+03   -0.45053E-03   -0.45911E-03   568   0.389E-02    0.177E-01
RMM:  18     0.802697988735E+03   -0.42703E-03   -0.41786E-03   615   0.416E-02    0.183E-01
RMM:  19     0.802697634836E+03   -0.35390E-03   -0.39088E-03   638   0.423E-02    0.187E-01
RMM:  20     0.802697311707E+03   -0.32313E-03   -0.37271E-03   644   0.376E-02    0.190E-01
RMM:  21     0.802697142967E+03   -0.16874E-03   -0.32677E-03   572   0.352E-02    0.175E-01
RMM:  22     0.802697093615E+03   -0.49352E-04   -0.37811E-03   605   0.386E-02    0.123E-01
RMM:  23     0.802696860632E+03   -0.23298E-03   -0.39338E-03   583   0.381E-02    0.736E-02
RMM:  24     0.802696529377E+03   -0.33125E-03   -0.32823E-03   482   0.308E-02    0.559E-02
RMM:  25     0.802696174042E+03   -0.35534E-03   -0.36530E-03   542   0.309E-02    0.481E-02
RMM:  26     0.802695854233E+03   -0.31981E-03   -0.31634E-03   421   0.275E-02    0.585E-02
RMM:  27     0.802695474721E+03   -0.37951E-03   -0.35785E-03   479   0.284E-02    0.864E-02
RMM:  28     0.802695140180E+03   -0.33454E-03   -0.32168E-03   440   0.264E-02    0.111E-01
RMM:  29     0.802694797491E+03   -0.34269E-03   -0.32087E-03   448   0.264E-02    0.140E-01
RMM:  30     0.802694481256E+03   -0.31624E-03   -0.30087E-03   436   0.278E-02    0.165E-01
RMM:  31     0.802694144857E+03   -0.33640E-03   -0.30612E-03   440   0.276E-02    0.194E-01
RMM:  32     0.802693850296E+03   -0.29456E-03   -0.28839E-03   455   0.282E-02    0.218E-01
RMM:  33     0.802693552026E+03   -0.29827E-03   -0.28779E-03   424   0.249E-02    0.244E-01
RMM:  34     0.802693276371E+03   -0.27566E-03   -0.26817E-03   400   0.232E-02    0.266E-01
RMM:  35     0.802693008287E+03   -0.26808E-03   -0.26356E-03   412   0.240E-02    0.289E-01
RMM:  36     0.802692739987E+03   -0.26830E-03   -0.25372E-03   411   0.251E-02    0.309E-01
RMM:  37     0.802692534322E+03   -0.20567E-03   -0.24485E-03   415   0.254E-02    0.327E-01
RMM:  38     0.802692266452E+03   -0.26787E-03   -0.23946E-03   439   0.258E-02    0.347E-01
RMM:  39     0.802692025364E+03   -0.24109E-03   -0.23389E-03   411   0.245E-02    0.366E-01
RMM:  40     0.802691800762E+03   -0.22460E-03   -0.22208E-03   358   0.212E-02    0.383E-01
RMM:  41     0.802691582196E+03   -0.21857E-03   -0.21777E-03   340   0.221E-02    0.399E-01
RMM:  42     0.802691366339E+03   -0.21586E-03   -0.21307E-03   324   0.212E-02    0.415E-01
RMM:  43     0.802691159336E+03   -0.20700E-03   -0.20904E-03   329   0.215E-02    0.430E-01
RMM:  44     0.802690963737E+03   -0.19560E-03   -0.20535E-03   331   0.206E-02    0.445E-01
RMM:  45     0.802690755126E+03   -0.20861E-03   -0.19784E-03   286   0.181E-02    0.460E-01
RMM:  46     0.802690546187E+03   -0.20894E-03   -0.19714E-03   303   0.193E-02    0.475E-01
RMM:  47     0.802690109325E+03   -0.43686E-03   -0.21977E-03   422   0.223E-02    0.500E-01
RMM:  48     0.802689429466E+03   -0.67986E-03   -0.26957E-03   483   0.275E-02    0.540E-01
RMM:  49     0.802688933066E+03   -0.49640E-03   -0.28767E-03   486   0.312E-02    0.580E-01
RMM:  50     0.802688701246E+03   -0.23182E-03   -0.23674E-03   499   0.281E-02    0.604E-01
RMM:  51     0.802688522554E+03   -0.17869E-03   -0.22893E-03   426   0.260E-02    0.626E-01
RMM:  52     0.802688377302E+03   -0.14525E-03   -0.21919E-03   413   0.238E-02    0.645E-01
RMM:  53     0.802688305775E+03   -0.71527E-04   -0.20141E-03   381   0.234E-02    0.661E-01
RMM:  54     0.802688030013E+03   -0.27576E-03   -0.21036E-03   366   0.230E-02    0.681E-01
RMM:  55     0.802687840688E+03   -0.18933E-03   -0.19997E-03   327   0.209E-02    0.698E-01
RMM:  56     0.802687625184E+03   -0.21550E-03   -0.19559E-03   317   0.196E-02    0.716E-01
RMM:  57     0.802686088177E+03   -0.15370E-02   -0.36359E-03   581   0.322E-02    0.783E-01
RMM:  58     0.802686062408E+03   -0.25768E-04   -0.25060E-03   411   0.237E-02    0.807E-01
RMM:  59     0.802685878364E+03   -0.18404E-03   -0.24389E-03   433   0.279E-02    0.830E-01
RMM:  60     0.802685658457E+03   -0.21991E-03   -0.23357E-03   467   0.291E-02
  14 F= 0.80268566E+03 E0= 0.80267773E+03  d E =-.247013E+00
       N       E                     dE             d eps       ncg     rms          rms(c)
RMM:   1     0.801109205578E+03   -0.15767E+01   -0.85818E+01   666   0.150E+01    0.231E+00
RMM:   2     0.802506128107E+03    0.13969E+01    0.10424E+01   793   0.569E+00    0.256E+00
RMM:   3     0.802672543987E+03    0.16642E+00   -0.10328E+00   954   0.162E+00    0.128E+00
RMM:   4     0.802660204160E+03   -0.12340E-01   -0.56344E-01  1024   0.889E-01    0.868E-01
RMM:   5     0.802661927324E+03    0.17232E-02   -0.18218E-01  1013   0.538E-01    0.594E-01
RMM:   6     0.802651920887E+03   -0.10006E-01   -0.16476E-01  1026   0.434E-01    0.671E-01
RMM:   7     0.802661241569E+03    0.93207E-02   -0.52187E-02  1005   0.308E-01    0.399E-01
RMM:   8     0.802661797850E+03    0.55628E-03   -0.34473E-02  1022   0.197E-01    0.241E-01
RMM:   9     0.802660967333E+03   -0.83052E-03   -0.29075E-02  1023   0.147E-01    0.138E-01
RMM:  10     0.802659640709E+03   -0.13266E-02   -0.17924E-02  1020   0.101E-01    0.214E-01
RMM:  11     0.802659544116E+03   -0.96594E-04   -0.75659E-03   962   0.666E-02    0.231E-01
RMM:  12     0.802659314002E+03   -0.23011E-03   -0.48567E-03   688   0.480E-02    0.260E-01
RMM:  13     0.802658383523E+03   -0.93048E-03   -0.57357E-03   580   0.394E-02    0.335E-01
RMM:  14     0.802659003889E+03    0.62037E-03   -0.29077E-03   653   0.434E-02    0.325E-01
RMM:  15     0.802659553438E+03    0.54955E-03   -0.38858E-02   875   0.160E-01    0.136E-01
RMM:  16     0.802657605350E+03   -0.19481E-02   -0.17386E-02   802   0.782E-02    0.298E-01
RMM:  17     0.802657947392E+03    0.34204E-03   -0.84816E-03   652   0.501E-02    0.321E-01
RMM:  18     0.802658625617E+03    0.67823E-03   -0.41161E-03   759   0.506E-02    0.300E-01
RMM:  19     0.802659297702E+03    0.67208E-03   -0.24062E-03   777   0.456E-02    0.256E-01
RMM:  20     0.802660129450E+03    0.83175E-03   -0.47915E-03   798   0.612E-02    0.114E-01
RMM:  21     0.802659761139E+03   -0.36831E-03   -0.80119E-03   809   0.539E-02    0.478E-02
RMM:  22     0.802659343699E+03   -0.41744E-03   -0.41885E-03   501   0.312E-02    0.101E-01
RMM:  23     0.802659141141E+03   -0.20256E-03   -0.29489E-03   465   0.283E-02    0.132E-01
RMM:  24     0.802658941109E+03   -0.20003E-03   -0.24038E-03   472   0.288E-02    0.163E-01
RMM:  25     0.802658592227E+03   -0.34888E-03   -0.28277E-03   485   0.292E-02    0.208E-01
RMM:  26     0.802658517813E+03   -0.74413E-04   -0.19942E-03   447   0.252E-02    0.231E-01
RMM:  27     0.802658358621E+03   -0.15919E-03   -0.18986E-03   412   0.212E-02    0.261E-01
RMM:  28     0.802658231884E+03   -0.12674E-03   -0.16418E-03   384   0.204E-02    0.285E-01
RMM:  29     0.802658089037E+03   -0.14285E-03   -0.15512E-03   339   0.185E-02    0.312E-01
RMM:  30     0.802657932567E+03   -0.15647E-03   -0.14916E-03   355   0.212E-02    0.336E-01
RMM:  31     0.802657778984E+03   -0.15358E-03   -0.14829E-03   349   0.199E-02    0.360E-01
RMM:  32     0.802657564727E+03   -0.21426E-03   -0.15183E-03   334   0.188E-02    0.386E-01
RMM:  33     0.802657430027E+03   -0.13470E-03   -0.14149E-03   317   0.174E-02    0.409E-01
RMM:  34     0.802657233287E+03   -0.19674E-03   -0.14449E-03   290   0.154E-02    0.435E-01
RMM:  35     0.802657047666E+03   -0.18562E-03   -0.14367E-03   287   0.162E-02    0.460E-01
RMM:  36     0.802656972183E+03   -0.75483E-04   -0.12949E-03   299   0.177E-02    0.481E-01
RMM:  37     0.802656859146E+03   -0.11304E-03   -0.12488E-03   286   0.170E-02    0.501E-01
RMM:  38     0.802656727882E+03   -0.13126E-03   -0.12599E-03   296   0.175E-02    0.522E-01
RMM:  39     0.802656649558E+03   -0.78323E-04   -0.11663E-03   286   0.166E-02    0.540E-01
RMM:  40     0.802656767116E+03    0.11756E-03   -0.98247E-04   312   0.167E-02    0.551E-01
RMM:  41     0.802657170891E+03    0.40377E-03   -0.82496E-04   392   0.211E-02    0.550E-01
RMM:  42     0.802657371912E+03    0.20102E-03   -0.76749E-04   408   0.222E-02    0.546E-01
RMM:  43     0.802657363897E+03   -0.80141E-05   -0.69293E-04   386   0.206E-02
  15 F= 0.80265736E+03 E0= 0.80265025E+03  d E =-.275308E+00
       N       E                     dE             d eps       ncg     rms          rms(c)
RMM:   1     0.801461830797E+03   -0.11955E+01   -0.64629E+01   668   0.130E+01    0.187E+00
RMM:   2     0.802495346517E+03    0.10335E+01    0.81252E+00   790   0.482E+00    0.193E+00
RMM:   3     0.802558069905E+03    0.62723E-01   -0.78134E-01   983   0.131E+00    0.106E+00
RMM:   4     0.802550720205E+03   -0.73497E-02   -0.38884E-01  1022   0.733E-01    0.716E-01
RMM:   5     0.802551271976E+03    0.55177E-03   -0.14195E-01  1021   0.469E-01    0.474E-01
RMM:   6     0.802545711440E+03   -0.55605E-02   -0.10657E-01  1028   0.351E-01    0.494E-01
RMM:   7     0.802550330377E+03    0.46189E-02   -0.39784E-02  1018   0.254E-01    0.280E-01
RMM:   8     0.802550434063E+03    0.10369E-03   -0.22243E-02  1021   0.160E-01    0.148E-01
RMM:   9     0.802549769958E+03   -0.66410E-03   -0.13065E-02  1021   0.109E-01    0.111E-01
RMM:  10     0.802549237767E+03   -0.53219E-03   -0.96235E-03  1011   0.799E-02    0.135E-01
RMM:  11     0.802549120553E+03   -0.11721E-03   -0.41791E-03   871   0.536E-02    0.136E-01
RMM:  12     0.802548970352E+03   -0.15020E-03   -0.28218E-03   666   0.406E-02    0.143E-01
RMM:  13     0.802548510658E+03   -0.45969E-03   -0.29365E-03   577   0.357E-02    0.185E-01
RMM:  14     0.802548995440E+03    0.48478E-03   -0.58817E-03   898   0.670E-02    0.537E-02
RMM:  15     0.802548379449E+03   -0.61599E-03   -0.73865E-03   820   0.554E-02    0.112E-01
RMM:  16     0.802548363983E+03   -0.15466E-04   -0.25073E-03   459   0.312E-02    0.117E-01
RMM:  17     0.802548432769E+03    0.68786E-04   -0.18416E-03   556   0.347E-02    0.100E-01
RMM:  18     0.802548429701E+03   -0.30680E-05   -0.21419E-03   730   0.432E-02    0.498E-02
RMM:  19     0.802548312625E+03   -0.11708E-03   -0.14063E-03   484   0.238E-02    0.297E-02
RMM:  20     0.802548187505E+03   -0.12512E-03   -0.13705E-03   475   0.256E-02    0.124E-02
RMM:  21     0.802548026947E+03   -0.16056E-03   -0.16119E-03   528   0.267E-02    0.218E-02
RMM:  22     0.802547904572E+03   -0.12237E-03   -0.12451E-03   425   0.226E-02    0.296E-02
RMM:  23     0.802547796358E+03   -0.10821E-03   -0.11485E-03   428   0.223E-02    0.337E-02
RMM:  24     0.802547681781E+03   -0.11458E-03   -0.10824E-03   395   0.212E-02    0.424E-02
RMM:  25     0.802547576123E+03   -0.10566E-03   -0.10792E-03   369   0.202E-02    0.483E-02
RMM:  26     0.802547471492E+03   -0.10463E-03   -0.10302E-03   345   0.194E-02    0.539E-02
RMM:  27     0.802547369305E+03   -0.10219E-03   -0.10224E-03   350   0.196E-02    0.588E-02
RMM:  28     0.802547267752E+03   -0.10155E-03   -0.10074E-03   316   0.170E-02    0.638E-02
RMM:  29     0.802547170298E+03   -0.97454E-04   -0.98450E-04   303   0.168E-02
  16 F= 0.80254717E+03 E0= 0.80253733E+03  d E =-.110194E+00
       N       E                     dE             d eps       ncg     rms          rms(c)
RMM:   1     0.801439462083E+03   -0.11078E+01   -0.59884E+01   666   0.125E+01    0.176E+00
RMM:   2     0.802458682469E+03    0.10192E+01    0.81874E+00   794   0.467E+00    0.176E+00
RMM:   3     0.802502740295E+03    0.44058E-01   -0.71486E-01   994   0.119E+00    0.950E-01
RMM:   4     0.802494732595E+03   -0.80077E-02   -0.31484E-01  1027   0.661E-01    0.689E-01
RMM:   5     0.802495265456E+03    0.53286E-03   -0.13083E-01  1023   0.439E-01    0.456E-01
RMM:   6     0.802490285338E+03   -0.49801E-02   -0.93730E-02  1026   0.343E-01    0.486E-01
RMM:   7     0.802495079537E+03    0.47942E-02   -0.34976E-02  1025   0.232E-01    0.257E-01
RMM:   8     0.802494550246E+03   -0.52929E-03   -0.21521E-02  1027   0.149E-01    0.149E-01
RMM:   9     0.802493871090E+03   -0.67916E-03   -0.14463E-02  1025   0.109E-01    0.109E-01
RMM:  10     0.802493273705E+03   -0.59738E-03   -0.91772E-03  1016   0.742E-02    0.146E-01
RMM:  11     0.802493187983E+03   -0.85722E-04   -0.44817E-03   877   0.526E-02    0.132E-01
RMM:  12     0.802493020612E+03   -0.16737E-03   -0.30787E-03   655   0.412E-02    0.127E-01
RMM:  13     0.802492933111E+03   -0.87501E-04   -0.28729E-03   663   0.408E-02    0.950E-02
RMM:  14     0.802492667436E+03   -0.26567E-03   -0.57297E-03   881   0.572E-02    0.524E-02
RMM:  15     0.802492343537E+03   -0.32390E-03   -0.33553E-03   524   0.319E-02    0.817E-02
RMM:  16     0.802492195888E+03   -0.14765E-03   -0.23955E-03   494   0.317E-02    0.840E-02
RMM:  17     0.802492068565E+03   -0.12732E-03   -0.20501E-03   554   0.313E-02    0.779E-02
RMM:  18     0.802491952954E+03   -0.11561E-03   -0.19902E-03   518   0.312E-02    0.590E-02
RMM:  19     0.802491806042E+03   -0.14691E-03   -0.21016E-03   509   0.282E-02    0.296E-02
RMM:  20     0.802491611969E+03   -0.19407E-03   -0.20671E-03   507   0.293E-02    0.132E-02
RMM:  21     0.802491435760E+03   -0.17621E-03   -0.17144E-03   446   0.262E-02    0.132E-02
RMM:  22     0.802491271372E+03   -0.16439E-03   -0.16030E-03   470   0.234E-02    0.904E-03
RMM:  23     0.802491097089E+03   -0.17428E-03   -0.16395E-03   473   0.250E-02    0.205E-02
RMM:  24     0.802490932821E+03   -0.16427E-03   -0.15504E-03   410   0.226E-02    0.281E-02
RMM:  25     0.802490782527E+03   -0.15029E-03   -0.15021E-03   405   0.231E-02    0.322E-02
RMM:  26     0.802490622414E+03   -0.16011E-03   -0.15014E-03   419   0.223E-02    0.404E-02
RMM:  27     0.802490485262E+03   -0.13715E-03   -0.14147E-03   363   0.187E-02    0.425E-02
RMM:  28     0.802490333624E+03   -0.15164E-03   -0.14280E-03   366   0.198E-02    0.487E-02
[...]
RMM:   2     0.802215745316E+03    0.23770E-01    0.19369E-01   797   0.714E-01    0.178E-01
RMM:   3     0.802214842754E+03   -0.90256E-03   -0.16322E-02   995   0.176E-01    0.133E-01
RMM:   4     0.802214842549E+03   -0.20562E-06   -0.60194E-03   958   0.990E-02    0.904E-02
RMM:   5     0.802214764378E+03   -0.78171E-04   -0.43036E-03  1001   0.766E-02    0.893E-02
RMM:   6     0.802214927377E+03    0.16300E-03   -0.18261E-03   876   0.534E-02    0.427E-02
RMM:   7     0.802214865645E+03   -0.61732E-04   -0.12177E-03   734   0.388E-02    0.270E-02
RMM:   8     0.802214824056E+03   -0.41588E-04   -0.69867E-04   533   0.328E-02
  56 F= 0.80221482E+03 E0= 0.80218020E+03  d E =-.297682E-02
       N       E                     dE             d eps       ncg     rms          rms(c)
RMM:   1     0.802207694367E+03   -0.71713E-02   -0.44388E-01   667   0.110E+00    0.150E-01
RMM:   2     0.802214552570E+03    0.68582E-02    0.55713E-02   768   0.377E-01    0.945E-02
RMM:   3     0.802214331878E+03   -0.22069E-03   -0.37543E-03   889   0.922E-02    0.694E-02
RMM:   4     0.802214418893E+03    0.87015E-04   -0.13365E-03   783   0.545E-02    0.452E-02
RMM:   5     0.802214464830E+03    0.45937E-04   -0.88483E-04   787   0.462E-02
  57 F= 0.80221446E+03 E0= 0.80217995E+03  d E =-.333605E-02
       N       E                     dE             d eps       ncg     rms          rms(c)
RMM:   1     0.802212644188E+03   -0.17747E-02   -0.10821E-01   687   0.544E-01    0.764E-02
RMM:   2     0.802214280093E+03    0.16359E-02    0.13567E-02   769   0.189E-01    0.679E-02
RMM:   3     0.802214300959E+03    0.20866E-04   -0.11569E-03   746   0.485E-02    0.356E-02
RMM:   4     0.802214342834E+03    0.41874E-04   -0.23819E-04   516   0.384E-02
  58 F= 0.80221434E+03 E0= 0.80217978E+03  d E =-.345805E-02
       N       E                     dE             d eps       ncg     rms          rms(c)
RMM:   1     0.802208252430E+03   -0.60485E-02   -0.31541E-01   683   0.924E-01    0.128E-01
RMM:   2     0.802213455300E+03    0.52029E-02    0.42644E-02   782   0.340E-01    0.889E-02
RMM:   3     0.802213277808E+03   -0.17749E-03   -0.35966E-03   905   0.915E-02    0.621E-02
RMM:   4     0.802213278859E+03    0.10517E-05   -0.17092E-03   823   0.552E-02    0.426E-02
RMM:   5     0.802213304354E+03    0.25495E-04   -0.87748E-04   767   0.434E-02
  59 F= 0.80221330E+03 E0= 0.80217854E+03  d E =-.103848E-02
       N       E                     dE             d eps       ncg     rms          rms(c)
RMM:   1     0.802211259013E+03   -0.20198E-02   -0.10930E-01   696   0.542E-01    0.728E-02
RMM:   2     0.802212979471E+03    0.17205E-02    0.13522E-02   721   0.201E-01    0.507E-02
RMM:   3     0.802212850787E+03   -0.12868E-03   -0.17888E-03   795   0.622E-02    0.336E-02
RMM:   4     0.802212834564E+03   -0.16223E-04   -0.72353E-04   700   0.437E-02
  60 F= 0.80221283E+03 E0= 0.80217800E+03  d E =-.150827E-02
       N       E                     dE             d eps       ncg     rms          rms(c)
RMM:   1     0.802205254982E+03   -0.75958E-02   -0.43114E-01   667   0.107E+00    0.145E-01
RMM:   2     0.802212521614E+03    0.72666E-02    0.58339E-02   780   0.405E-01    0.103E-01
RMM:   3     0.802212165151E+03   -0.35646E-03   -0.57702E-03   923   0.109E-01    0.753E-02
RMM:   4     0.802212166768E+03    0.16166E-05   -0.24261E-03   849   0.656E-02    0.496E-02
RMM:   5     0.802212168506E+03    0.17377E-05   -0.13460E-03   830   0.496E-02    0.354E-02
RMM:   6     0.802212160318E+03   -0.81878E-05   -0.71250E-04   689   0.363E-02
  61 F= 0.80221216E+03 E0= 0.80217709E+03  d E =-.218252E-02
       N       E                     dE             d eps       ncg     rms          rms(c)
RMM:   1     0.802208186265E+03   -0.39822E-02   -0.17752E-01   681   0.679E-01    0.990E-02
RMM:   2     0.802211258779E+03    0.30725E-02    0.24645E-02   766   0.262E-01    0.812E-02
RMM:   3     0.802211180573E+03   -0.78206E-04   -0.25240E-03   831   0.707E-02    0.496E-02
RMM:   4     0.802211213627E+03    0.33053E-04   -0.69074E-04   748   0.492E-02
  62 F= 0.80221121E+03 E0= 0.80217599E+03  d E =-.946691E-03
       N       E                     dE             d eps       ncg     rms          rms(c)
RMM:   1     0.802209816804E+03   -0.13638E-02   -0.63785E-02   678   0.401E-01    0.587E-02
RMM:   2     0.802210959135E+03    0.11423E-02    0.91445E-03   686   0.166E-01    0.547E-02
RMM:   3     0.802210895324E+03   -0.63811E-04   -0.12338E-03   746   0.547E-02    0.354E-02
RMM:   4     0.802210891416E+03   -0.39086E-05   -0.55618E-04   699   0.404E-02
  63 F= 0.80221089E+03 E0= 0.80217555E+03  d E =-.126890E-02
       N       E                     dE             d eps       ncg     rms          rms(c)
RMM:   1     0.802209844071E+03   -0.10513E-02   -0.50945E-02   670   0.370E-01    0.514E-02
RMM:   2     0.802210643740E+03    0.79967E-03    0.62771E-03   623   0.142E-01    0.342E-02
RMM:   3     0.802210582337E+03   -0.61403E-04   -0.86515E-04   680   0.500E-02
  64 F= 0.80221058E+03 E0= 0.80217516E+03  d E =-.309079E-03
       N       E                     dE             d eps       ncg     rms          rms(c)
RMM:   1     0.802210262040E+03   -0.38170E-03   -0.26936E-02   710   0.282E-01    0.396E-02
RMM:   2     0.802210422323E+03    0.16028E-03    0.10455E-03   678   0.101E-01    0.370E-02
RMM:   3     0.802210384731E+03   -0.37592E-04   -0.71963E-04   696   0.471E-02
  65 F= 0.80221038E+03 E0= 0.80217493E+03  d E =-.506685E-03
       N       E                     dE             d eps       ncg     rms          rms(c)
RMM:   1     0.802209625836E+03   -0.79649E-03   -0.39630E-02   679   0.329E-01    0.455E-02
RMM:   2     0.802210158905E+03    0.53307E-03    0.39812E-03   648   0.122E-01    0.311E-02
RMM:   3     0.802210093086E+03   -0.65818E-04   -0.83712E-04   679   0.466E-02
  66 F= 0.80221009E+03 E0= 0.80217455E+03  d E =-.291645E-03
       N       E                     dE             d eps       ncg     rms          rms(c)
RMM:   1     0.802204943022E+03   -0.52159E-02   -0.33938E-01   670   0.972E-01    0.131E-01
RMM:   2     0.802209613927E+03    0.46709E-02    0.36463E-02   784   0.337E-01    0.879E-02
RMM:   3     0.802209358837E+03   -0.25509E-03   -0.43715E-03   894   0.981E-02    0.632E-02
RMM:   4     0.802209328818E+03   -0.30019E-04   -0.20123E-03   838   0.594E-02    0.447E-02
RMM:   5     0.802209307673E+03   -0.21146E-04   -0.12782E-03   764   0.448E-02    0.363E-02
RMM:   6     0.802209314511E+03    0.68384E-05   -0.61928E-04   587   0.351E-02
  67 F= 0.80220931E+03 E0= 0.80217362E+03  d E =-.107022E-02
       N       E                     dE             d eps       ncg     rms          rms(c)
RMM:   1     0.802190719701E+03   -0.18588E-01   -0.13285E+00   659   0.193E+00    0.254E-01
RMM:   2     0.802209141268E+03    0.18422E-01    0.14162E-01   779   0.651E-01    0.161E-01
RMM:   3     0.802208400260E+03   -0.74101E-03   -0.14080E-02   966   0.178E-01    0.119E-01
RMM:   4     0.802208221879E+03   -0.17838E-03   -0.69350E-03   958   0.101E-01    0.878E-02
RMM:   5     0.802208192375E+03   -0.29504E-04   -0.41855E-03   977   0.758E-02    0.833E-02
RMM:   6     0.802208325133E+03    0.13276E-03   -0.19045E-03   891   0.523E-02    0.321E-02
RMM:   7     0.802208262215E+03   -0.62918E-04   -0.94078E-04   623   0.352E-02
  68 F= 0.80220826E+03 E0= 0.80217225E+03  d E =-.212252E-02
       N       E                     dE             d eps       ncg     rms          rms(c)
RMM:   1     0.802139563640E+03   -0.68761E-01   -0.52727E+00   658   0.386E+00    0.505E-01
RMM:   2     0.802211018608E+03    0.71455E-01    0.54081E-01   779   0.127E+00    0.333E-01
RMM:   3     0.802208780991E+03   -0.22376E-02   -0.54284E-02   986   0.355E-01    0.247E-01
RMM:   4     0.802208023367E+03   -0.75762E-03   -0.25933E-02  1007   0.192E-01    0.171E-01
RMM:   5     0.802207455885E+03   -0.56748E-03   -0.17861E-02  1019   0.142E-01    0.182E-01
RMM:   6     0.802208208378E+03    0.75249E-03   -0.72456E-03   992   0.103E-01    0.761E-02
RMM:   7     0.802208036979E+03   -0.17140E-03   -0.35559E-03   977   0.632E-02    0.421E-02
RMM:   8     0.802207916586E+03   -0.12039E-03   -0.17578E-03   741   0.418E-02    0.401E-02
RMM:   9     0.802207875134E+03   -0.41452E-04   -0.72910E-04   521   0.325E-02
  69 F= 0.80220788E+03 E0= 0.80217123E+03  d E =-.250960E-02
       N       E                     dE             d eps       ncg     rms          rms(c)
RMM:   1     0.802165880758E+03   -0.42036E-01   -0.32944E+00   660   0.307E+00    0.408E-01
RMM:   2     0.802208793864E+03    0.42913E-01    0.33054E-01   781   0.977E-01    0.256E-01
RMM:   3     0.802207159151E+03   -0.16347E-02   -0.30095E-02   971   0.266E-01    0.215E-01
RMM:   4     0.802207576047E+03    0.41690E-03   -0.13168E-02   966   0.144E-01    0.121E-01
RMM:   5     0.802207392868E+03   -0.18318E-03   -0.97217E-03  1004   0.112E-01    0.132E-01
RMM:   6     0.802207855555E+03    0.46269E-03   -0.34004E-03   972   0.771E-02    0.592E-02
RMM:   7     0.802207733236E+03   -0.12232E-03   -0.22461E-03   855   0.489E-02    0.321E-02
RMM:   8     0.802207685407E+03   -0.47828E-04   -0.75638E-04   550   0.340E-02
  70 F= 0.80220769E+03 E0= 0.80217154E+03  d E =-.269932E-02
       N       E                     dE             d eps       ncg     rms          rms(c)
RMM:   1     0.802197027938E+03   -0.10705E-01   -0.82099E-01   659   0.153E+00    0.205E-01
RMM:   2     0.802207552369E+03    0.10524E-01    0.82757E-02   778   0.486E-01    0.124E-01
RMM:   3     0.802207211892E+03   -0.34048E-03   -0.65862E-03   905   0.133E-01    0.103E-01
RMM:   4     0.802207353630E+03    0.14174E-03   -0.32858E-03   915   0.739E-02    0.599E-02
RMM:   5     0.802207342455E+03   -0.11175E-04   -0.27411E-03   934   0.583E-02    0.695E-02
RMM:   6     0.802207467114E+03    0.12466E-03   -0.89943E-04   735   0.406E-02    0.317E-02
RMM:   7     0.802207444007E+03   -0.23107E-04   -0.49521E-04   453   0.289E-02
  71 F= 0.80220744E+03 E0= 0.80217104E+03  d E =-.294072E-02
       N       E                     dE             d eps       ncg     rms          rms(c)
RMM:   1     0.802207161754E+03   -0.30536E-03   -0.21422E-02   661   0.251E-01    0.359E-02
RMM:   2     0.802207370204E+03    0.20845E-03    0.16003E-03   616   0.756E-02    0.202E-02
RMM:   3     0.802207363370E+03   -0.68342E-05   -0.13703E-04   477   0.320E-02
  72 F= 0.80220736E+03 E0= 0.80217103E+03  d E =-.302136E-02
       N       E                     dE             d eps       ncg     rms          rms(c)
RMM:   1     0.802207203272E+03   -0.16693E-03   -0.10959E-02   645   0.178E-01    0.176E-02
RMM:   2     0.802207354831E+03    0.15156E-03    0.12286E-03   490   0.652E-02    0.162E-02
RMM:   3     0.802207348522E+03   -0.63082E-05   -0.14108E-04   412   0.251E-02
  73 F= 0.80220735E+03 E0= 0.80217094E+03  d E =-.303621E-02
       N       E                     dE             d eps       ncg     rms          rms(c)
RMM:   1     0.802207303715E+03   -0.51116E-04   -0.26702E-03   695   0.909E-02    0.116E-02
RMM:   2     0.802207320676E+03    0.16961E-04    0.93362E-05   479   0.323E-02
  74 F= 0.80220732E+03 E0= 0.80217093E+03  d E =-.306405E-02
       N       E                     dE             d eps       ncg     rms          rms(c)
RMM:   1     0.802207207858E+03   -0.95856E-04   -0.38244E-03   611   0.996E-02    0.116E-02
RMM:   2     0.802207277551E+03    0.69692E-04    0.58507E-04   434   0.478E-02
  75 F= 0.80220728E+03 E0= 0.80217086E+03  d E =-.431256E-04
       N       E                     dE             d eps       ncg     rms          rms(c)
RMM:   1     0.802207260360E+03    0.52502E-04   -0.48610E-04   647   0.390E-02    0.834E-03
RMM:   2     0.802207245927E+03   -0.14433E-04   -0.15833E-04   374   0.174E-02
  76 F= 0.80220725E+03 E0= 0.80217083E+03  d E =-.747488E-04
       N       E                     dE             d eps       ncg     rms          rms(c)
RMM:   1     0.802207215165E+03   -0.45195E-04   -0.13727E-03   682   0.662E-02    0.979E-03
RMM:   2     0.802207213110E+03   -0.20554E-05   -0.55130E-05   467   0.303E-02
  77 F= 0.80220721E+03 E0= 0.80217078E+03  d E =-.107567E-03
       N       E                     dE             d eps       ncg     rms          rms(c)
RMM:   1     0.802207104315E+03   -0.11085E-03   -0.55047E-03   652   0.124E-01    0.183E-02
RMM:   2     0.802207165081E+03    0.60766E-04    0.41807E-04   473   0.488E-02
  78 F= 0.80220717E+03 E0= 0.80217072E+03  d E =-.155595E-03
       N       E                     dE             d eps       ncg     rms          rms(c)
RMM:   1     0.802207110470E+03    0.61554E-05   -0.36780E-04   551   0.357E-02    0.942E-03
RMM:   2     0.802207093925E+03   -0.16545E-04   -0.21519E-04   511   0.301E-02
  79 F= 0.80220709E+03 E0= 0.80217065E+03  d E =-.711560E-04
       N       E                     dE             d eps       ncg     rms          rms(c)
RMM:   1     0.802206928332E+03   -0.18214E-03   -0.21410E-03   713   0.768E-02    0.104E-02
RMM:   2     0.802206934836E+03    0.65050E-05    0.44801E-05   485   0.323E-02
  80 F= 0.80220693E+03 E0= 0.80217049E+03  d E =-.230245E-03
       N       E                     dE             d eps       ncg     rms          rms(c)
RMM:   1     0.802206531185E+03   -0.39715E-03   -0.91058E-03   658   0.150E-01    0.213E-02
RMM:   2     0.802206677913E+03    0.14673E-03    0.12172E-03   521   0.649E-02    0.144E-02
RMM:   3     0.802206659284E+03   -0.18630E-04   -0.22119E-04   370   0.252E-02
  81 F= 0.80220666E+03 E0= 0.80217018E+03  d E =-.505798E-03
       N       E                     dE             d eps       ncg     rms          rms(c)
RMM:   1     0.802205918190E+03   -0.75972E-03   -0.33154E-02   711   0.295E-01    0.387E-02
RMM:   2     0.802206277743E+03    0.35955E-03    0.31017E-03   686   0.102E-01    0.285E-02
RMM:   3     0.802206238055E+03   -0.39688E-04   -0.50798E-04   573   0.396E-02
  82 F= 0.80220624E+03 E0= 0.80216975E+03  d E =-.927026E-03
       N       E                     dE             d eps       ncg     rms          rms(c)
RMM:   1     0.802203487789E+03   -0.27900E-02   -0.14067E-01   689   0.586E-01    0.844E-02
RMM:   2     0.802205899637E+03    0.24118E-02    0.20110E-02   757   0.233E-01    0.663E-02
RMM:   3     0.802205805361E+03   -0.94277E-04   -0.20701E-03   846   0.655E-02    0.428E-02
RMM:   4     0.802205779407E+03   -0.25954E-04   -0.85183E-04   708   0.401E-02
  83 F= 0.80220578E+03 E0= 0.80216923E+03  d E =-.138567E-02
       N       E                     dE             d eps       ncg     rms          rms(c)
RMM:   1     0.802205665025E+03   -0.14034E-03   -0.67898E-03   642   0.132E-01    0.361E-02
RMM:   2     0.802205716100E+03    0.51075E-04    0.78972E-05   593   0.520E-02
  84 F= 0.80220572E+03 E0= 0.80216920E+03  d E =-.144898E-02
       N       E                     dE             d eps       ncg     rms          rms(c)
RMM:   1     0.802205722704E+03    0.57679E-04   -0.24136E-03   637   0.815E-02    0.197E-02
RMM:   2     0.802205689644E+03   -0.33060E-04   -0.54417E-04   476   0.326E-02
  85 F= 0.80220569E+03 E0= 0.80216917E+03  d E =-.147544E-02
       N       E                     dE             d eps       ncg     rms          rms(c)
RMM:   1     0.802205732967E+03    0.10262E-04   -0.16663E-04   411   0.278E-02    0.245E-02
RMM:   2     0.802205632672E+03   -0.10029E-03   -0.13706E-03   614   0.326E-02    0.548E-02
RMM:   3     0.802205714378E+03    0.81706E-04   -0.17255E-04   408   0.207E-02
  86 F= 0.80220571E+03 E0= 0.80216913E+03  d E =-.145070E-02
       N       E                     dE             d eps       ncg     rms          rms(c)
RMM:   1     0.802205716040E+03    0.83368E-04   -0.18620E-04   393   0.233E-02    0.212E-02
RMM:   2     0.802205599177E+03   -0.11686E-03   -0.14367E-03   542   0.304E-02    0.536E-02
RMM:   3     0.802205671488E+03    0.72310E-04   -0.17764E-04   411   0.238E-02
  87 F= 0.80220567E+03 E0= 0.80216910E+03  d E =-.149359E-02
       N       E                     dE             d eps       ncg     rms          rms(c)
RMM:   1     0.802205677939E+03    0.78762E-04   -0.79373E-05   417   0.210E-02    0.325E-02
RMM:   2     0.802205476556E+03   -0.20138E-03   -0.26268E-03   591   0.344E-02    0.811E-02
RMM:   3     0.802205656117E+03    0.17956E-03   -0.29935E-04   422   0.231E-02    0.507E-02
RMM:   4     0.802205666255E+03    0.10138E-04   -0.15260E-04   360   0.199E-02
  88 F= 0.80220567E+03 E0= 0.80216909E+03  d E =-.149883E-02
       N       E                     dE             d eps       ncg     rms          rms(c)
RMM:   1     0.802205664283E+03    0.81660E-05   -0.12705E-04   360   0.206E-02    0.330E-02
RMM:   2     0.802205342050E+03   -0.32223E-03   -0.38558E-03   644   0.371E-02    0.104E-01
RMM:   3     0.802205600246E+03    0.25820E-03   -0.36917E-04   432   0.263E-02    0.715E-02
RMM:   4     0.802205620511E+03    0.20265E-04   -0.18773E-04   399   0.238E-02
  89 F= 0.80220562E+03 E0= 0.80216904E+03  d E =-.154457E-02
       N       E                     dE             d eps       ncg     rms          rms(c)
RMM:   1     0.802205620279E+03    0.20034E-04   -0.11640E-04   337   0.185E-02    0.555E-02
RMM:   2     0.802204910947E+03   -0.70933E-03   -0.88933E-03   681   0.501E-02    0.160E-01
RMM:   3     0.802205558236E+03    0.64729E-03   -0.10322E-03   562   0.361E-02    0.978E-02
RMM:   4     0.802205604662E+03    0.46426E-04   -0.39301E-04   411   0.257E-02
  90 F= 0.80220560E+03 E0= 0.80216903E+03  d E =-.156042E-02
       N       E                     dE             d eps       ncg     rms          rms(c)
RMM:   1     0.802205612257E+03    0.54022E-04   -0.13622E-04   345   0.213E-02    0.695E-02
RMM:   2     0.802204417506E+03   -0.11948E-02   -0.14727E-02   741   0.621E-02    0.211E-01
RMM:   3     0.802205484915E+03    0.10674E-02   -0.19754E-03   638   0.428E-02    0.128E-01
RMM:   4     0.802205564645E+03    0.79730E-04   -0.60987E-04   446   0.286E-02
  91 F= 0.80220556E+03 E0= 0.80216898E+03  d E =-.160044E-02
       N       E                     dE             d eps       ncg     rms          rms(c)
RMM:   1     0.802205576301E+03    0.91386E-04   -0.18629E-04   377   0.232E-02    0.915E-02
RMM:   2     0.802203652481E+03   -0.19238E-02   -0.23948E-02   766   0.762E-02    0.271E-01
RMM:   3     0.802205435457E+03    0.17830E-02   -0.35430E-03   696   0.525E-02    0.158E-01
RMM:   4     0.802205550730E+03    0.11527E-03   -0.11914E-03   503   0.311E-02    0.112E-01
RMM:   5     0.802205572330E+03    0.21601E-04   -0.21700E-04   402   0.249E-02
  92 F= 0.80220557E+03 E0= 0.80216899E+03  d E =-.159275E-02
       N       E                     dE             d eps       ncg     rms          rms(c)
RMM:   1     0.802205559846E+03    0.91160E-05   -0.22474E-04   382   0.232E-02    0.852E-02
RMM:   2     0.802203995157E+03   -0.15647E-02   -0.19597E-02   762   0.718E-02    0.232E-01
RMM:   3     0.802205385689E+03    0.13905E-02   -0.25151E-03   617   0.479E-02    0.139E-01
RMM:   4     0.802205491043E+03    0.10535E-03   -0.94508E-04   498   0.327E-02    0.102E-01
RMM:   5     0.802205515917E+03    0.24874E-04   -0.29091E-04   440   0.265E-02
  93 F= 0.80220552E+03 E0= 0.80216894E+03  d E =-.164916E-02
       N       E                     dE             d eps       ncg     rms          rms(c)
RMM:   1     0.802198782853E+03   -0.67082E-02   -0.45377E-01   676   0.106E+00    0.175E-01
RMM:   2     0.802205231948E+03    0.64491E-02    0.46770E-02   796   0.419E-01    0.260E-01
RMM:   3     0.802206726748E+03    0.14948E-02   -0.84072E-03   931   0.112E-01    0.125E-01
RMM:   4     0.802206578408E+03   -0.14834E-03   -0.47564E-03   934   0.670E-02    0.699E-02
RMM:   5     0.802206646168E+03    0.67759E-04   -0.10114E-03   734   0.421E-02    0.469E-02
RMM:   6     0.802206645263E+03   -0.90469E-06   -0.90505E-04   693   0.384E-02
  94 F= 0.80220665E+03 E0= 0.80217023E+03  d E =-.519818E-03
