<?xml version="1.0" encoding="ISO-8859-1"?>
<modeling>
 <generator>
  <i name="program" type="string">vasp </i>
  <i name="version" type="string">5.4.1  </i>
  <i name="subversion" type="string">24Jun15 (build Jan 06 2016 13:19:48) gamma-only                       parallel </i>
  <i name="platform" type="string">IFC91_ompi </i>
  <i name="date" type="string">2016 02 26 </i>
  <i name="time" type="string">16:20:37 </i>
 </generator>
 <incar>
  <i type="string" name="SYSTEM"> Pt cube particle</i>
  <i type="string" name="PREC">normal</i>
  <i type="int" name="IALGO">    48</i>
  <i type="int" name="IBRION">     2</i>
  <i name="EDIFF">      0.00010000</i>
  <i name="EDIFFG">     -0.00500000</i>
  <i type="int" name="NSW">   200</i>
  <i type="int" name="ISIF">     0</i>
  <i type="int" name="ISYM">     0</i>
  <i name="ENMAX">    274.00000000</i>
  <i name="POTIM">      0.10000000</i>
  <i type="string" name="LREAL">Auto</i>
  <i type="logical" name="LPLANE"> T  </i>
  <i type="logical" name="LWAVE"> F  </i>
  <i type="logical" name="LCHARG"> F  </i>
  <v type="int" name="KPOINT_BSE">    -1     0     0     0</v>
 </incar>
 <kpoints>
  <generation param="Monkhorst-Pack">
   <v type="int" name="divisions">       1        1        1 </v>
   <v name="usershift">      0.00000000       0.00000000       0.00000000 </v>
   <v name="genvec1">      1.00000000       0.00000000       0.00000000 </v>
   <v name="genvec2">      0.00000000       1.00000000       0.00000000 </v>
   <v name="genvec3">      0.00000000       0.00000000       1.00000000 </v>
   <v name="shift">      0.00000000       0.00000000       0.00000000 </v>
  </generation>
  <varray name="kpointlist" >
   <v>       0.00000000       0.00000000       0.00000000 </v>
  </varray>
  <varray name="weights" >
   <v>       1.00000000 </v>
  </varray>
 </kpoints>
 <parameters>
  <separator name="general" >
   <i type="string" name="SYSTEM">Pt cube particle</i>
   <i type="logical" name="LCOMPAT"> F  </i>
  </separator>
  <separator name="electronic" >
   <i type="string" name="PREC">normal</i>
   <i name="ENMAX">    274.00000000</i>
   <i name="ENAUG">    357.07800000</i>
   <i name="EDIFF">      0.00010000</i>
   <i type="int" name="IALGO">    48</i>
   <i type="int" name="IWAVPR">    11</i>
   <i type="int" name="NBANDS">   274</i>
   <i name="NELECT">    456.00000000</i>
   <i type="int" name="TURBO">     0</i>
   <i type="int" name="IRESTART">     0</i>
   <i type="int" name="NREBOOT">     0</i>
   <i type="int" name="NMIN">     0</i>
   <i name="EREF">      0.00000000</i>
   <separator name="electronic smearing" >
    <i type="int" name="ISMEAR">     1</i>
    <i name="SIGMA">      0.20000000</i>
    <i name="KSPACING">      0.50000000</i>
    <i type="logical" name="KGAMMA"> T  </i>
   </separator>
   <separator name="electronic projectors" >
    <i type="logical" name="LREAL"> T  </i>
    <v name="ROPT">     -0.00050000</v>
    <i type="int" name="LMAXPAW">  -100</i>
    <i type="int" name="LMAXMIX">     2</i>
    <i type="logical" name="NLSPLINE"> F  </i>
   </separator>
   <separator name="electronic startup" >
    <i type="int" name="ISTART">     0</i>
    <i type="int" name="ICHARG">     2</i>
    <i type="int" name="INIWAV">     1</i>
   </separator>
   <separator name="electronic spin" >
    <i type="int" name="ISPIN">     1</i>
    <i type="logical" name="LNONCOLLINEAR"> F  </i>
    <v name="MAGMOM">      1.00000000      1.00000000      1.00000000      1.00000000      1.00000000      1.00000000      1.00000000      1.00000000      1.00000000      1.00000000      1.00000000      1.00000000      1.00000000      1.00000000      1.00000000      1.00000000      1.00000000      1.00000000      1.00000000      1.00000000
      1.00000000      1.00000000      1.00000000      1.00000000      1.00000000      1.00000000      1.00000000      1.00000000      1.00000000      1.00000000      1.00000000      1.00000000      1.00000000      1.00000000      1.00000000      1.00000000      1.00000000      1.00000000</v>
    <i name="NUPDOWN">     -1.00000000</i>
    <i type="logical" name="LSORBIT"> F  </i>
    <v name="SAXIS">      0.00000000      0.00000000      1.00000000</v>
    <i type="logical" name="LSPIRAL"> F  </i>
    <v name="QSPIRAL">      0.00000000      0.00000000      0.00000000</v>
    <i type="logical" name="LZEROZ"> F  </i>
   </separator>
   <separator name="electronic exchange-correlation" >
    <i type="logical" name="LASPH"> F  </i>
    <i type="logical" name="LMETAGGA"> F  </i>
   </separator>
   <separator name="electronic convergence" >
    <i type="int" name="NELM">    60</i>
    <i type="int" name="NELMDL">   -12</i>
    <i type="int" name="NELMIN">     2</i>
    <i name="ENINI">    274.00000000</i>
    <separator name="electronic convergence detail" >
     <i type="logical" name="LDIAG"> T  </i>
     <i type="logical" name="LSUBROT"> F  </i>
     <i name="WEIMIN">      0.00100000</i>
     <i name="EBREAK">      0.00000009</i>
     <i name="DEPER">      0.30000000</i>
     <i type="int" name="NRMM">     4</i>
     <i name="TIME">      0.40000000</i>
    </separator>
   </separator>
   <separator name="electronic mixer" >
    <i name="AMIX">      0.40000000</i>
    <i name="BMIX">      1.00000000</i>
    <i name="AMIN">      0.10000000</i>
    <i name="AMIX_MAG">      1.60000000</i>
    <i name="BMIX_MAG">      1.00000000</i>
    <separator name="electronic mixer details" >
     <i type="int" name="IMIX">     4</i>
     <i type="logical" name="MIXFIRST"> F  </i>
     <i type="int" name="MAXMIX">   -45</i>
     <i name="WC">    100.00000000</i>
     <i type="int" name="INIMIX">     1</i>
     <i type="int" name="MIXPRE">     1</i>
     <i type="int" name="MREMOVE">     5</i>
    </separator>
   </separator>
   <separator name="electronic dipolcorrection" >
    <i type="logical" name="LDIPOL"> F  </i>
    <i type="logical" name="LMONO"> F  </i>
    <i type="int" name="IDIPOL">     0</i>
    <i name="EPSILON">      1.00000000</i>
    <v name="DIPOL">   -100.00000000   -100.00000000   -100.00000000</v>
    <i name="EFIELD">      0.00000000</i>
   </separator>
  </separator>
  <separator name="grids" >
   <i type="int" name="NGX">    80</i>
   <i type="int" name="NGY">    80</i>
   <i type="int" name="NGZ">    80</i>
   <i type="int" name="NGXF">   160</i>
   <i type="int" name="NGYF">   160</i>
   <i type="int" name="NGZF">   160</i>
   <i type="logical" name="ADDGRID"> F  </i>
  </separator>
  <separator name="ionic" >
   <i type="int" name="NSW">   200</i>
   <i type="int" name="IBRION">     2</i>
   <i type="int" name="ISIF">     0</i>
   <i name="PSTRESS">      0.00000000</i>
   <i name="EDIFFG">     -0.00500000</i>
   <i type="int" name="NFREE">     1</i>
   <i name="POTIM">      0.10000000</i>
   <i name="SMASS">     -3.00000000</i>
   <i name="SCALEE">      1.00000000</i>
  </separator>
  <separator name="ionic md" >
   <i name="TEBEG">      0.00010000</i>
   <i name="TEEND">      0.00010000</i>
   <i type="int" name="NBLOCK">     1</i>
   <i type="int" name="KBLOCK">   200</i>
   <i type="int" name="NPACO">   256</i>
   <i name="APACO">     16.00000000</i>
  </separator>
  <separator name="symmetry" >
   <i type="int" name="ISYM">     0</i>
   <i name="SYMPREC">      0.00001000</i>
  </separator>
  <separator name="dos" >
   <i type="logical" name="LORBIT"> F  </i>
   <v name="RWIGS">     -1.00000000</v>
   <i type="int" name="NEDOS">   301</i>
   <i name="EMIN">     10.00000000</i>
   <i name="EMAX">    -10.00000000</i>
   <i name="EFERMI">      0.00000000</i>
  </separator>
  <separator name="writing" >
   <i type="int" name="NWRITE">     2</i>
   <i type="logical" name="LWAVE"> F  </i>
   <i type="logical" name="LCHARG"> F  </i>
   <i type="logical" name="LPARD"> F  </i>
   <i type="logical" name="LVTOT"> F  </i>
   <i type="logical" name="LVHAR"> F  </i>
   <i type="logical" name="LELF"> F  </i>
   <i type="logical" name="LOPTICS"> F  </i>
   <v name="STM">      0.00000000      0.00000000      0.00000000      0.00000000      0.00000000      0.00000000      0.00000000</v>
  </separator>
  <separator name="performance" >
   <i type="int" name="NPAR">     2</i>
   <i type="int" name="NSIM">     4</i>
   <i type="int" name="NBLK">    -1</i>
   <i type="logical" name="LPLANE"> T  </i>
   <i type="logical" name="LSCALAPACK"> T  </i>
   <i type="logical" name="LSCAAWARE"> F  </i>
   <i type="logical" name="LSCALU"> F  </i>
   <i type="logical" name="LASYNC"> F  </i>
   <i type="logical" name="LORBITALREAL"> F  </i>
  </separator>
  <separator name="miscellaneous" >
   <i type="int" name="IDIOT">     3</i>
   <i type="logical" name="LMUSIC"> F  </i>
   <v name="POMASS">     91.22400000</v>
   <v name="DARWINR">      0.00000000</v>
   <v name="DARWINV">      1.00000000</v>
   <i type="logical" name="LCORR"> T  </i>
  </separator>
  <i type="logical" name="GGA_COMPAT"> T  </i>
  <i type="logical" name="LBERRY"> F  </i>
  <i type="int" name="ICORELEVEL">     0</i>
  <i type="logical" name="LDAU"> F  </i>
  <i type="int" name="I_CONSTRAINED_M">     0</i>
  <separator name="electronic exchange-correlation" >
   <i type="string" name="GGA">--</i>
   <i type="int" name="VOSKOWN">     0</i>
   <i type="logical" name="LHFCALC"> F  </i>
   <i type="string" name="PRECFOCK"></i>
   <i type="logical" name="LSYMGRAD"> F  </i>
   <i type="logical" name="LHFONE"> F  </i>
   <i type="logical" name="LRHFCALC"> F  </i>
   <i type="logical" name="LTHOMAS"> F  </i>
   <i type="logical" name="LMODELHF"> F  </i>
   <i name="ENCUT4O">     -1.00000000</i>
   <i type="int" name="EXXOEP">     0</i>
   <i type="int" name="FOURORBIT">     0</i>
   <i name="AEXX">      0.00000000</i>
   <i name="HFALPHA">      0.00000000</i>
   <i name="MCALPHA">      0.00000000</i>
   <i name="ALDAX">      1.00000000</i>
   <i name="AGGAX">      1.00000000</i>
   <i name="ALDAC">      1.00000000</i>
   <i name="AGGAC">      1.00000000</i>
   <i type="int" name="NKREDX">     1</i>
   <i type="int" name="NKREDY">     1</i>
   <i type="int" name="NKREDZ">     1</i>
   <i type="logical" name="SHIFTRED"> F  </i>
   <i type="logical" name="ODDONLY"> F  </i>
   <i type="logical" name="EVENONLY"> F  </i>
   <i type="int" name="LMAXFOCK">     0</i>
   <i type="int" name="NMAXFOCKAE">     0</i>
   <i type="logical" name="LFOCKAEDFT"> F  </i>
   <i name="HFSCREEN">      0.00000000</i>
   <i name="HFSCREENC">      0.00000000</i>
   <i type="int" name="NBANDSGWLOW">     0</i>
  </separator>
  <separator name="vdW DFT" >
   <i type="logical" name="LUSE_VDW"> F  </i>
   <i name="Zab_VDW">     -0.84910000</i>
   <i name="PARAM1">      0.12340000</i>
   <i name="PARAM2">      1.00000000</i>
   <i name="PARAM3">      0.00000000</i>
  </separator>
  <separator name="model GW" >
   <i type="int" name="MODEL_GW">     0</i>
   <i name="MODEL_EPS0">     92.08421053</i>
   <i name="MODEL_ALPHA">      1.00000000</i>
  </separator>
  <separator name="linear response parameters" >
   <i type="logical" name="LEPSILON"> F  </i>
   <i type="logical" name="LRPA"> F  </i>
   <i type="logical" name="LNABLA"> F  </i>
   <i type="logical" name="LVEL"> F  </i>
   <i type="int" name="KINTER">     0</i>
   <i name="CSHIFT">      0.10000000</i>
   <i name="OMEGAMAX">     -1.00000000</i>
   <i name="DEG_THRESHOLD">      0.00200000</i>
  </separator>
  <separator name="orbital magnetization" >
   <i type="logical" name="NUCIND"> F  </i>
   <v name="MAGPOS">      0.00000000      0.00000000      0.00000000</v>
   <i type="logical" name="LNICSALL"> T  </i>
   <i type="logical" name="ORBITALMAG"> F  </i>
   <i type="logical" name="LMAGBLOCH"> F  </i>
   <i type="logical" name="LCHIMAG"> F  </i>
   <i type="logical" name="LGAUGE"> T  </i>
   <i type="int" name="MAGATOM">     0</i>
   <v name="MAGDIPOL">      0.00000000      0.00000000      0.00000000</v>
   <v name="AVECCONST">      0.00000000      0.00000000      0.00000000</v>
  </separator>
  <separator name="response functions" >
   <i type="logical" name="LADDER"> F  </i>
   <i type="logical" name="LFXC"> F  </i>
   <i type="logical" name="LHARTREE"> T  </i>
   <i type="int" name="IBSE">     0</i>
   <v type="int" name="KPOINT">    -1     0     0     0</v>
   <i type="logical" name="LTCTE"> F  </i>
   <i type="logical" name="LTETE"> F  </i>
   <i type="logical" name="LTRIPLET"> F  </i>
   <i type="logical" name="LFXCEPS"> F  </i>
   <i type="logical" name="LFXHEG"> F  </i>
   <i type="int" name="NATURALO">     0</i>
   <i type="logical" name="L2ORDER"> F  </i>
   <i type="logical" name="LUSEW"> F  </i>
   <i name="ENCUTGW">     -2.00000000</i>
   <i name="ENCUTGWSOFT">     -2.00000000</i>
   <i name="ENCUTLF">     -1.00000000</i>
   <i type="int" name="LMAXMP2">    -1</i>
   <i name="SCISSOR">      0.00000000</i>
   <i type="int" name="NOMEGA">     0</i>
   <i type="int" name="NOMEGAR">     0</i>
   <i type="int" name="NBANDSGW">    -1</i>
   <i type="int" name="NBANDSO">    -1</i>
   <i type="int" name="NBANDSV">    -1</i>
   <i type="int" name="NELM">     1</i>
   <i type="int" name="NELMHF">     1</i>
   <i type="int" name="DIM">     3</i>
   <i type="int" name="ANTIRES">     0</i>
   <i name="OMEGAMAX">    -30.00000000</i>
   <i name="OMEGAMIN">    -30.00000000</i>
   <i name="OMEGATL">   -200.00000000</i>
   <i type="int" name="OMEGAGRID">     0</i>
   <i name="CSHIFT">     -0.10000000</i>
   <i type="logical" name="SELFENERGY"> F  </i>
   <i type="logical" name="LSPECTRAL"> F  </i>
   <i type="logical" name="LSPECTRALGW"> F  </i>
   <i type="logical" name="LSINGLES"> F  </i>
   <i type="logical" name="LFERMIGW"> F  </i>
   <i type="logical" name="ODDONLYGW"> F  </i>
   <i type="logical" name="EVENONLYGW"> F  </i>
   <i type="int" name="NKREDLFX">     1</i>
   <i type="int" name="NKREDLFY">     1</i>
   <i type="int" name="NKREDLFZ">     1</i>
   <i type="int" name="MAXMEM">  1800</i>
   <i type="int" name="TELESCOPE">     0</i>
   <i type="int" name="TAUPAR">     1</i>
   <i type="int" name="OMEGAPAR">    -1</i>
   <i name="LAMBDA">      1.00000000</i>
  </separator>
  <separator name="External order field" >
   <i name="OFIELD_KAPPA">      0.00000000</i>
   <v name="OFIELD_K">      0.00000000      0.00000000      0.00000000</v>
   <i name="OFIELD_Q6_NEAR">      0.00000000</i>
   <i name="OFIELD_Q6_FAR">      0.00000000</i>
   <i name="OFIELD_A">      0.00000000</i>
  </separator>
  <separator name="solvation model" >
   <i type="logical" name="LSOL"> F  </i>
  </separator>
 </parameters>
 <atominfo>
  <atoms>      38 </atoms>
  <types>       1 </types>
  <array name="atoms" >
   <dimension dim="1">ion</dimension>
   <field type="string">element</field>
   <field type="int">atomtype</field>
   <set>
    <rc><c>Zr</c><c>   1</c></rc>
    <rc><c>Zr</c><c>   1</c></rc>
    <rc><c>Zr</c><c>   1</c></rc>
    <rc><c>Zr</c><c>   1</c></rc>
    <rc><c>Zr</c><c>   1</c></rc>
    <rc><c>Zr</c><c>   1</c></rc>
    <rc><c>Zr</c><c>   1</c></rc>
    <rc><c>Zr</c><c>   1</c></rc>
    <rc><c>Zr</c><c>   1</c></rc>
    <rc><c>Zr</c><c>   1</c></rc>
    <rc><c>Zr</c><c>   1</c></rc>
    <rc><c>Zr</c><c>   1</c></rc>
    <rc><c>Zr</c><c>   1</c></rc>
    <rc><c>Zr</c><c>   1</c></rc>
    <rc><c>Zr</c><c>   1</c></rc>
    <rc><c>Zr</c><c>   1</c></rc>
    <rc><c>Zr</c><c>   1</c></rc>
    <rc><c>Zr</c><c>   1</c></rc>
    <rc><c>Zr</c><c>   1</c></rc>
    <rc><c>Zr</c><c>   1</c></rc>
    <rc><c>Zr</c><c>   1</c></rc>
    <rc><c>Zr</c><c>   1</c></rc>
    <rc><c>Zr</c><c>   1</c></rc>
    <rc><c>Zr</c><c>   1</c></rc>
    <rc><c>Zr</c><c>   1</c></rc>
    <rc><c>Zr</c><c>   1</c></rc>
    <rc><c>Zr</c><c>   1</c></rc>
    <rc><c>Zr</c><c>   1</c></rc>
    <rc><c>Zr</c><c>   1</c></rc>
    <rc><c>Zr</c><c>   1</c></rc>
    <rc><c>Zr</c><c>   1</c></rc>
    <rc><c>Zr</c><c>   1</c></rc>
    <rc><c>Zr</c><c>   1</c></rc>
    <rc><c>Zr</c><c>   1</c></rc>
    <rc><c>Zr</c><c>   1</c></rc>
    <rc><c>Zr</c><c>   1</c></rc>
    <rc><c>Zr</c><c>   1</c></rc>
    <rc><c>Zr</c><c>   1</c></rc>
   </set>
  </array>
  <array name="atomtypes" >
   <dimension dim="1">type</dimension>
   <field type="int">atomspertype</field>
   <field type="string">element</field>
   <field>mass</field>
   <field>valence</field>
   <field type="string">pseudopotential</field>
   <set>
    <rc><c>  38</c><c>Zr</c><c>     91.22400000</c><c>     12.00000000</c><c>  PAW Zr                                </c></rc>
   </set>
  </array>
 </atominfo>
 <structure name="initialpos" >
  <crystal>
   <varray name="basis" >
    <v>      18.00000000       0.00000000       0.00000000 </v>
    <v>       0.00000000      18.00000000       0.00000000 </v>
    <v>       0.00000000       0.00000000      18.00000000 </v>
   </varray>
   <i name="volume">   5832.00000000 </i>
   <varray name="rec_basis" >
    <v>       0.05555556       0.00000000       0.00000000 </v>
    <v>       0.00000000       0.05555556       0.00000000 </v>
    <v>       0.00000000       0.00000000       0.05555556 </v>
   </varray>
  </crystal>
  <varray name="positions" >
   <v>       0.73691698       0.61028676       0.49525134 </v>
   <v>       0.62337438       0.74137376       0.49464457 </v>
   <v>       0.23939327       0.60844346       0.49673176 </v>
   <v>       0.44726174       0.73909519       0.50412486 </v>
   <v>       0.24355532       0.46304281       0.51682214 </v>
   <v>       0.45387881       0.25751229       0.47713713 </v>
   <v>       0.74223066       0.39102613       0.50033403 </v>
   <v>       0.63017903       0.25357198       0.49512974 </v>
   <v>       0.67994685       0.49867225       0.59083189 </v>
   <v>       0.29846817       0.50409347       0.63048196 </v>
   <v>       0.49878347       0.68403016       0.61721539 </v>
   <v>       0.50295537       0.30472837       0.61841121 </v>
   <v>       0.66930292       0.67266267       0.61774138 </v>
   <v>       0.33018507       0.67941341       0.61364431 </v>
   <v>       0.32253673       0.32912644       0.63560913 </v>
   <v>       0.67163053       0.32554933       0.62246464 </v>
   <v>       0.67374061       0.49981373       0.40614445 </v>
   <v>       0.30452199       0.50073659       0.37647603 </v>
   <v>       0.49237038       0.68108776       0.38117981 </v>
   <v>       0.51659562       0.31043804       0.37072577 </v>
   <v>       0.66174180       0.67036445       0.37507385 </v>
   <v>       0.33129614       0.66543677       0.39151422 </v>
   <v>       0.35920770       0.34167207       0.36554059 </v>
   <v>       0.68024512       0.32717384       0.38163834 </v>
   <v>       0.60083775       0.58651468       0.69248926 </v>
   <v>       0.38875189       0.60083652       0.69746537 </v>
   <v>       0.39260263       0.39648477       0.70720351 </v>
   <v>       0.60318211       0.41375596       0.69383759 </v>
   <v>       0.57568536       0.58091066       0.30587554 </v>
   <v>       0.41052289       0.58173734       0.28577159 </v>
   <v>       0.41439830       0.41127247       0.27579457 </v>
   <v>       0.59464595       0.41398415       0.30367405 </v>
   <v>       0.49070002       0.49595210       0.62279849 </v>
   <v>       0.39571023       0.40299995       0.51941558 </v>
   <v>       0.39704408       0.57416455       0.51011890 </v>
   <v>       0.48003250       0.48632178       0.39962747 </v>
   <v>       0.56966217       0.58922245       0.50097106 </v>
   <v>       0.57323595       0.40382136       0.50209298 </v>
  </varray>
  <varray name="selective"  type="logical" >
   <v type="logical" >  T  T  T </v>
   <v type="logical" >  T  T  T </v>
   <v type="logical" >  T  T  T </v>
   <v type="logical" >  T  T  T </v>
   <v type="logical" >  T  T  T </v>
   <v type="logical" >  T  T  T </v>
   <v type="logical" >  T  T  T </v>
   <v type="logical" >  T  T  T </v>
   <v type="logical" >  T  T  T </v>
   <v type="logical" >  T  T  T </v>
   <v type="logical" >  T  T  T </v>
   <v type="logical" >  T  T  T </v>
   <v type="logical" >  T  T  T </v>
   <v type="logical" >  T  T  T </v>
   <v type="logical" >  T  T  T </v>
   <v type="logical" >  T  T  T </v>
   <v type="logical" >  T  T  T </v>
   <v type="logical" >  T  T  T </v>
   <v type="logical" >  T  T  T </v>
   <v type="logical" >  T  T  T </v>
   <v type="logical" >  T  T  T </v>
   <v type="logical" >  T  T  T </v>
   <v type="logical" >  T  T  T </v>
   <v type="logical" >  T  T  T </v>
   <v type="logical" >  T  T  T </v>
   <v type="logical" >  T  T  T </v>
   <v type="logical" >  T  T  T </v>
   <v type="logical" >  T  T  T </v>
   <v type="logical" >  T  T  T </v>
   <v type="logical" >  T  T  T </v>
   <v type="logical" >  T  T  T </v>
   <v type="logical" >  T  T  T </v>
   <v type="logical" >  T  T  T </v>
   <v type="logical" >  T  T  T </v>
   <v type="logical" >  T  T  T </v>
   <v type="logical" >  T  T  T </v>
   <v type="logical" >  T  T  T </v>
   <v type="logical" >  T  T  T </v>
  </varray>
  <nose>
   <v>      -3.00000000       0.00000000       0.00010000       0.00010000 </v>
  </nose>
 </structure>
 <calculation>
  <scstep>
   <time name="diag">    4.48    4.49</time>
   <time name="diis">   10.04   10.11</time>
   <time name="orth">    0.39    0.40</time>
   <time name="total">   17.13   17.22</time>
   <energy>
    <i name="alphaZ">    648.08823605 </i>
    <i name="ewald">  72997.16084270 </i>
    <i name="hartreedc">-113264.59791296 </i>
    <i name="XCdc">   1882.29210374 </i>
    <i name="pawpsdc">  31713.39125920 </i>
    <i name="pawaedc"> -31048.43836928 </i>
    <i name="eentropy">      0.05058908 </i>
    <i name="bandstr">  -6537.21120859 </i>
    <i name="atom">  48828.33605910 </i>
    <i name="e_fr_energy">   5219.07159905 </i>
    <i name="e_wo_entrp">   5219.02100997 </i>
    <i name="e_0_energy">   5219.05473602 </i>
   </energy>
  </scstep>
  <scstep>
   <time name="diag">    4.41    4.43</time>
   <time name="diis">   10.16   10.19</time>
   <time name="orth">    0.40    0.40</time>
   <time name="total">   14.98   15.03</time>
   <energy>
    <i name="e_fr_energy">   1112.02030157 </i>
    <i name="e_wo_entrp">   1112.11612424 </i>
    <i name="e_0_energy">   1112.05224246 </i>
   </energy>
  </scstep>
  <scstep>
   <time name="diag">    4.48    4.48</time>
   <time name="diis">   10.09   10.11</time>
   <time name="orth">    0.40    0.40</time>
   <time name="total">   14.98   15.00</time>
   <energy>
    <i name="e_fr_energy">   1587.23376034 </i>
    <i name="e_wo_entrp">   1587.35472137 </i>
    <i name="e_0_energy">   1587.27408068 </i>
   </energy>
  </scstep>
  <scstep>
   <time name="diag">    4.51    4.52</time>
   <time name="diis">   10.14   10.15</time>
   <time name="orth">    0.40    0.40</time>
   <time name="total">   15.05   15.08</time>
   <energy>
    <i name="e_fr_energy">   1063.12320089 </i>
    <i name="e_wo_entrp">   1063.02200142 </i>
    <i name="e_0_energy">   1063.08946773 </i>
   </energy>
  </scstep>
  <scstep>
   <time name="diag">    4.50    4.50</time>
   <time name="diis">   10.16   10.20</time>
   <time name="orth">    0.39    0.40</time>
   <time name="total">   15.06   15.10</time>
   <energy>
    <i name="e_fr_energy">    641.92088294 </i>
    <i name="e_wo_entrp">    641.94924700 </i>
    <i name="e_0_energy">    641.93033763 </i>
   </energy>
  </scstep>
  <scstep>
   <time name="diag">    4.45    4.46</time>
   <time name="diis">   10.15   10.17</time>
   <time name="orth">    0.40    0.40</time>
   <time name="total">   15.00   15.04</time>
   <energy>
    <i name="e_fr_energy">    537.26497476 </i>
    <i name="e_wo_entrp">    537.17436737 </i>
    <i name="e_0_energy">    537.23477230 </i>
   </energy>
  </scstep>
  <scstep>
   <time name="diag">    4.46    4.46</time>
   <time name="diis">   10.23   10.25</time>
   <time name="orth">    0.40    0.40</time>
   <time name="total">   15.09   15.12</time>
   <energy>
    <i name="e_fr_energy">    430.73217259 </i>
    <i name="e_wo_entrp">    430.69650734 </i>
    <i name="e_0_energy">    430.72028417 </i>
   </energy>
  </scstep>
  <scstep>
   <time name="diag">    4.49    4.50</time>
   <time name="diis">   10.19   10.21</time>
   <time name="orth">    0.40    0.40</time>
   <time name="total">   15.08   15.11</time>
   <energy>
    <i name="e_fr_energy">    373.50302029 </i>
    <i name="e_wo_entrp">    373.49746661 </i>
    <i name="e_0_energy">    373.50116907 </i>
   </energy>
  </scstep>
  <scstep>
   <time name="diag">    4.46    4.46</time>
   <time name="diis">   26.81   26.89</time>
   <time name="orth">    0.39    0.40</time>
   <time name="total">   31.67   31.76</time>
   <energy>
    <i name="e_fr_energy">    444.92800800 </i>
    <i name="e_wo_entrp">    444.95393245 </i>
    <i name="e_0_energy">    444.93664949 </i>
   </energy>
  </scstep>
  <scstep>
   <time name="diag">    4.44    4.44</time>
   <time name="diis">   27.69   27.75</time>
   <time name="orth">    0.40    0.40</time>
   <time name="total">   32.54   32.60</time>
   <energy>
    <i name="e_fr_energy">    611.03842808 </i>
    <i name="e_wo_entrp">    611.24886556 </i>
    <i name="e_0_energy">    611.10857390 </i>
   </energy>
  </scstep>
  <scstep>
   <time name="diag">    4.45    4.46</time>
   <time name="diis">   28.28   28.35</time>
   <time name="orth">    0.39    0.40</time>
   <time name="total">   33.13   33.21</time>
   <energy>
    <i name="e_fr_energy">    776.50204476 </i>
    <i name="e_wo_entrp">    776.55660393 </i>
    <i name="e_0_energy">    776.52023115 </i>
   </energy>
  </scstep>
  <scstep>
   <time name="diag">    4.42    4.44</time>
   <time name="diis">   31.04   31.11</time>
   <time name="orth">    0.40    0.40</time>
   <time name="total">   38.16   38.25</time>
   <energy>
    <i name="e_fr_energy">    752.85907923 </i>
    <i name="e_wo_entrp">    752.82156798 </i>
    <i name="e_0_energy">    752.84657548 </i>
   </energy>
  </scstep>
  <scstep>
   <time name="diag">    4.42    4.43</time>
   <time name="diis">   29.42   29.46</time>
   <time name="orth">    0.39    0.40</time>
   <time name="total">   38.67   38.74</time>
   <energy>
    <i name="e_fr_energy">    789.35910377 </i>
    <i name="e_wo_entrp">    789.36641529 </i>
    <i name="e_0_energy">    789.36154094 </i>
   </energy>
  </scstep>
  <scstep>
   <time name="diag">    4.41    4.42</time>
   <time name="diis">   26.65   26.72</time>
   <time name="orth">    0.40    0.40</time>
   <time name="total">   35.90   35.98</time>
   <energy>
    <i name="e_fr_energy">    811.21939580 </i>
    <i name="e_wo_entrp">    811.20327920 </i>
    <i name="e_0_energy">    811.21402360 </i>
   </energy>
  </scstep>
  <scstep>
   <time name="diag">    4.40    4.41</time>
   <time name="diis">   31.67   31.73</time>
   <time name="orth">    0.39    0.39</time>
   <time name="total">   40.93   41.02</time>
   <energy>
    <i name="e_fr_energy">    806.56782496 </i>
    <i name="e_wo_entrp">    806.46879350 </i>
    <i name="e_0_energy">    806.53481447 </i>
   </energy>
  </scstep>
  <scstep>
   <time name="diag">    4.39    4.41</time>
   <time name="diis">   31.79   31.85</time>
   <time name="orth">    0.39    0.40</time>
   <time name="total">   41.04   41.13</time>
   <energy>
    <i name="e_fr_energy">    808.61664243 </i>
    <i name="e_wo_entrp">    808.49489482 </i>
    <i name="e_0_energy">    808.57605990 </i>
   </energy>
  </scstep>
  <scstep>
   <time name="diag">    4.38    4.39</time>
   <time name="diis">   32.77   32.86</time>
   <time name="orth">    0.40    0.40</time>
   <time name="total">   42.02   42.12</time>
   <energy>
    <i name="e_fr_energy">    806.68591045 </i>
    <i name="e_wo_entrp">    806.54145120 </i>
    <i name="e_0_energy">    806.63775737 </i>
   </energy>
  </scstep>
  <scstep>
   <time name="diag">    4.41    4.41</time>
   <time name="diis">   33.53   33.62</time>
   <time name="orth">    0.40    0.40</time>
   <time name="total">   42.80   42.90</time>
   <energy>
    <i name="e_fr_energy">    806.04792678 </i>
    <i name="e_wo_entrp">    805.91100251 </i>
    <i name="e_0_energy">    806.00228535 </i>
   </energy>
  </scstep>
  <scstep>
   <time name="diag">    4.37    4.37</time>
   <time name="diis">   28.48   28.60</time>
   <time name="orth">    0.39    0.40</time>
   <time name="total">   37.70   37.85</time>
   <energy>
    <i name="e_fr_energy">    805.52876914 </i>
    <i name="e_wo_entrp">    805.41008086 </i>
    <i name="e_0_energy">    805.48920638 </i>
   </energy>
  </scstep>
  <scstep>
   <time name="diag">    4.34    4.36</time>
   <time name="diis">   30.67   30.84</time>
   <time name="orth">    0.40    0.40</time>
   <time name="total">   39.87   40.07</time>
   <energy>
    <i name="e_fr_energy">    805.01701829 </i>
    <i name="e_wo_entrp">    804.90525832 </i>
    <i name="e_0_energy">    804.97976497 </i>
   </energy>
  </scstep>
  <scstep>
   <time name="diag">    4.40    4.41</time>
   <time name="diis">   31.42   31.56</time>
   <time name="orth">    0.39    0.39</time>
   <time name="total">   40.69   40.86</time>
   <energy>
    <i name="e_fr_energy">    805.83901332 </i>
    <i name="e_wo_entrp">    805.69857167 </i>
    <i name="e_0_energy">    805.79219944 </i>
   </energy>
  </scstep>
  <scstep>
   <time name="diag">    4.36    4.38</time>
   <time name="diis">   31.52   31.67</time>
   <time name="orth">    0.40    0.40</time>
   <time name="total">   40.76   40.94</time>
   <energy>
    <i name="e_fr_energy">    805.83211516 </i>
    <i name="e_wo_entrp">    805.68845106 </i>
    <i name="e_0_energy">    805.78422713 </i>
   </energy>
  </scstep>
  <scstep>
   <time name="diag">    4.35    4.36</time>
   <time name="diis">   32.55   32.72</time>
   <time name="orth">    0.40    0.40</time>
   <time name="total">   41.77   41.97</time>
   <energy>
    <i name="e_fr_energy">    805.69377158 </i>
    <i name="e_wo_entrp">    805.54935141 </i>
    <i name="e_0_energy">    805.64563152 </i>
   </energy>
  </scstep>
  <scstep>
   <time name="diag">    4.35    4.37</time>
   <time name="diis">   31.52   31.67</time>
   <time name="orth">    0.39    0.40</time>
   <time name="total">   40.77   40.94</time>
   <energy>
    <i name="e_fr_energy">    805.52592745 </i>
    <i name="e_wo_entrp">    805.38010264 </i>
    <i name="e_0_energy">    805.47731918 </i>
   </energy>
  </scstep>
  <scstep>
   <time name="diag">    4.36    4.39</time>
   <time name="diis">   32.75   32.88</time>
   <time name="orth">    0.40    0.40</time>
   <time name="total">   41.99   42.17</time>
   <energy>
    <i name="e_fr_energy">    805.33710177 </i>
    <i name="e_wo_entrp">    805.18873341 </i>
    <i name="e_0_energy">    805.28764565 </i>
   </energy>
  </scstep>
  <scstep>
   <time name="diag">    4.42    4.45</time>
   <time name="diis">   32.33   32.47</time>
   <time name="orth">    0.39    0.40</time>
   <time name="total">   41.62   41.82</time>
   <energy>
    <i name="e_fr_energy">    805.11504259 </i>
    <i name="e_wo_entrp">    804.96310804 </i>
    <i name="e_0_energy">    805.06439774 </i>
   </energy>
  </scstep>
  <scstep>
   <time name="diag">    4.40    4.41</time>
   <time name="diis">   31.80   31.95</time>
   <time name="orth">    0.40    0.40</time>
   <time name="total">   41.03   41.22</time>
   <energy>
    <i name="e_fr_energy">    805.01591333 </i>
    <i name="e_wo_entrp">    804.86452276 </i>
    <i name="e_0_energy">    804.96544981 </i>
   </energy>
  </scstep>
  <scstep>
   <time name="diag">    4.40    4.41</time>
   <time name="diis">   33.13   33.27</time>
   <time name="orth">    0.40    0.40</time>
   <time name="total">   42.40   42.58</time>
   <energy>
    <i name="e_fr_energy">    804.90551195 </i>
    <i name="e_wo_entrp">    804.75331201 </i>
    <i name="e_0_energy">    804.85477864 </i>
   </energy>
  </scstep>
  <scstep>
   <time name="diag">    4.36    4.38</time>
   <time name="diis">   28.54   28.66</time>
   <time name="orth">    0.39    0.40</time>
   <time name="total">   37.80   37.99</time>
   <energy>
    <i name="e_fr_energy">    804.90655506 </i>
    <i name="e_wo_entrp">    804.75493771 </i>
    <i name="e_0_energy">    804.85601594 </i>
   </energy>
  </scstep>
  <scstep>
   <time name="diag">    4.35    4.36</time>
   <time name="diis">   31.13   31.29</time>
   <time name="orth">    0.39    0.40</time>
   <time name="total">   40.43   40.62</time>
   <energy>
    <i name="e_fr_energy">    804.82355243 </i>
    <i name="e_wo_entrp">    804.67026247 </i>
    <i name="e_0_energy">    804.77245578 </i>
   </energy>
  </scstep>
  <scstep>
   <time name="diag">    4.37    4.39</time>
   <time name="diis">   26.85   26.96</time>
   <time name="orth">    0.40    0.40</time>
   <time name="total">   36.13   36.29</time>
   <energy>
    <i name="e_fr_energy">    804.62940160 </i>
    <i name="e_wo_entrp">    804.47388885 </i>
    <i name="e_0_energy">    804.57756402 </i>
   </energy>
  </scstep>
  <scstep>
   <time name="diag">    4.41    4.43</time>
   <time name="diis">   30.81   30.95</time>
   <time name="orth">    0.40    0.40</time>
   <time name="total">   40.17   40.36</time>
   <energy>
    <i name="e_fr_energy">    804.70552004 </i>
    <i name="e_wo_entrp">    804.54954001 </i>
    <i name="e_0_energy">    804.65352670 </i>
   </energy>
  </scstep>
  <scstep>
   <time name="diag">    4.46    4.48</time>
   <time name="diis">   32.94   33.09</time>
   <time name="orth">    0.40    0.40</time>
   <time name="total">   42.36   42.56</time>
   <energy>
    <i name="e_fr_energy">    804.75302529 </i>
    <i name="e_wo_entrp">    804.59666095 </i>
    <i name="e_0_energy">    804.70090384 </i>
   </energy>
  </scstep>
  <scstep>
   <time name="diag">    4.41    4.43</time>
   <time name="diis">   28.11   28.23</time>
   <time name="orth">    0.39    0.40</time>
   <time name="total">   37.50   37.65</time>
   <energy>
    <i name="e_fr_energy">    804.69198151 </i>
    <i name="e_wo_entrp">    804.53496775 </i>
    <i name="e_0_energy">    804.63964359 </i>
   </energy>
  </scstep>
  <scstep>
   <time name="diag">    4.42    4.44</time>
   <time name="diis">   29.00   29.13</time>
   <time name="orth">    0.40    0.40</time>
   <time name="total">   38.40   38.58</time>
   <energy>
    <i name="e_fr_energy">    804.69145462 </i>
    <i name="e_wo_entrp">    804.53440143 </i>
    <i name="e_0_energy">    804.63910356 </i>
   </energy>
  </scstep>
  <scstep>
   <time name="diag">    4.41    4.44</time>
   <time name="diis">   26.47   26.59</time>
   <time name="orth">    0.40    0.40</time>
   <time name="total">   35.89   36.07</time>
   <energy>
    <i name="e_fr_energy">    804.64896409 </i>
    <i name="e_wo_entrp">    804.49116532 </i>
    <i name="e_0_energy">    804.59636450 </i>
   </energy>
  </scstep>
  <scstep>
   <time name="diag">    4.40    4.42</time>
   <time name="diis">   24.01   24.10</time>
   <time name="orth">    0.40    0.40</time>
   <time name="total">   33.45   33.58</time>
   <energy>
    <i name="e_fr_energy">    804.59669538 </i>
    <i name="e_wo_entrp">    804.43846756 </i>
    <i name="e_0_energy">    804.54395277 </i>
   </energy>
  </scstep>
  <scstep>
   <time name="diag">    4.38    4.39</time>
   <time name="diis">   30.47   30.62</time>
   <time name="orth">    0.39    0.39</time>
   <time name="total">   39.87   40.06</time>
   <energy>
    <i name="e_fr_energy">    804.55843504 </i>
    <i name="e_wo_entrp">    804.40002506 </i>
    <i name="e_0_energy">    804.50563171 </i>
   </energy>
  </scstep>
  <scstep>
   <time name="diag">    4.41    4.43</time>
   <time name="diis">   31.00   31.13</time>
   <time name="orth">    0.39    0.39</time>
   <time name="total">   40.46   40.65</time>
   <energy>
    <i name="e_fr_energy">    804.50221807 </i>
    <i name="e_wo_entrp">    804.34369973 </i>
    <i name="e_0_energy">    804.44937862 </i>
   </energy>
  </scstep>
  <scstep>
   <time name="diag">    4.41    4.42</time>
   <time name="diis">   28.96   29.09</time>
   <time name="orth">    0.39    0.40</time>
   <time name="total">   38.43   38.60</time>
   <energy>
    <i name="e_fr_energy">    804.42254513 </i>
    <i name="e_wo_entrp">    804.26359190 </i>
    <i name="e_0_energy">    804.36956072 </i>
   </energy>
  </scstep>
  <scstep>
   <time name="diag">    4.41    4.43</time>
   <time name="diis">   30.52   30.67</time>
   <time name="orth">    0.40    0.40</time>
   <time name="total">   40.02   40.21</time>
   <energy>
    <i name="e_fr_energy">    804.33682145 </i>
    <i name="e_wo_entrp">    804.17759807 </i>
    <i name="e_0_energy">    804.28374699 </i>
   </energy>
  </scstep>
  <scstep>
   <time name="diag">    4.43    4.44</time>
   <time name="diis">   27.66   27.78</time>
   <time name="orth">    0.40    0.40</time>
   <time name="total">   37.18   37.36</time>
   <energy>
    <i name="e_fr_energy">    804.37044443 </i>
    <i name="e_wo_entrp">    804.21181494 </i>
    <i name="e_0_energy">    804.31756793 </i>
   </energy>
  </scstep>
  <scstep>
   <time name="diag">    4.38    4.40</time>
   <time name="diis">   28.97   29.10</time>
   <time name="orth">    0.40    0.40</time>
   <time name="total">   38.48   38.65</time>
   <energy>
    <i name="e_fr_energy">    804.18901837 </i>
    <i name="e_wo_entrp">    804.02931248 </i>
    <i name="e_0_energy">    804.13578307 </i>
   </energy>
  </scstep>
  <scstep>
   <time name="diag">    4.45    4.48</time>
   <time name="diis">   30.78   30.96</time>
   <time name="orth">    0.40    0.40</time>
   <time name="total">   40.36   40.59</time>
   <energy>
    <i name="e_fr_energy">    804.28097862 </i>
    <i name="e_wo_entrp">    804.12211671 </i>
    <i name="e_0_energy">    804.22802465 </i>
   </energy>
  </scstep>
  <scstep>
   <time name="diag">    4.41    4.43</time>
   <time name="diis">   29.47   29.61</time>
   <time name="orth">    0.39    0.40</time>
   <time name="total">   39.04   39.21</time>
   <energy>
    <i name="e_fr_energy">    804.34744530 </i>
    <i name="e_wo_entrp">    804.18905026 </i>
    <i name="e_0_energy">    804.29464695 </i>
   </energy>
  </scstep>
  <scstep>
   <time name="diag">    4.42    4.44</time>
   <time name="diis">   31.11   31.24</time>
   <time name="orth">    0.40    0.40</time>
   <time name="total">   40.70   40.88</time>
   <energy>
    <i name="e_fr_energy">    804.43863761 </i>
    <i name="e_wo_entrp">    804.28148115 </i>
    <i name="e_0_energy">    804.38625212 </i>
   </energy>
  </scstep>
  <scstep>
   <time name="diag">    4.39    4.40</time>
   <time name="diis">   31.06   31.21</time>
   <time name="orth">    0.39    0.40</time>
   <time name="total">   40.65   40.84</time>
   <energy>
    <i name="e_fr_energy">    804.49687226 </i>
    <i name="e_wo_entrp">    804.33864810 </i>
    <i name="e_0_energy">    804.44413088 </i>
   </energy>
  </scstep>
  <scstep>
   <time name="diag">    4.37    4.39</time>
   <time name="diis">   31.12   31.26</time>
   <time name="orth">    0.40    0.40</time>
   <time name="total">   40.75   40.94</time>
   <energy>
    <i name="e_fr_energy">    804.62975830 </i>
    <i name="e_wo_entrp">    804.47318568 </i>
    <i name="e_0_energy">    804.57756742 </i>
   </energy>
  </scstep>
  <scstep>
   <time name="diag">    4.37    4.39</time>
   <time name="diis">   28.34   28.47</time>
   <time name="orth">    0.40    0.40</time>
   <time name="total">   37.95   38.12</time>
   <energy>
    <i name="e_fr_energy">    804.61922945 </i>
    <i name="e_wo_entrp">    804.46274336 </i>
    <i name="e_0_energy">    804.56706742 </i>
   </energy>
  </scstep>
  <scstep>
   <time name="diag">    4.39    4.41</time>
   <time name="diis">   30.13   30.29</time>
   <time name="orth">    0.39    0.39</time>
   <time name="total">   39.79   39.99</time>
   <energy>
    <i name="e_fr_energy">    804.62533896 </i>
    <i name="e_wo_entrp">    804.46878377 </i>
    <i name="e_0_energy">    804.57315389 </i>
   </energy>
  </scstep>
  <scstep>
   <time name="diag">    4.40    4.42</time>
   <time name="diis">   29.26   29.38</time>
   <time name="orth">    0.40    0.40</time>
   <time name="total">   38.96   39.12</time>
   <energy>
    <i name="e_fr_energy">    804.59728333 </i>
    <i name="e_wo_entrp">    804.44032252 </i>
    <i name="e_0_energy">    804.54496306 </i>
   </energy>
  </scstep>
  <scstep>
   <time name="diag">    4.40    4.43</time>
   <time name="diis">   28.26   28.37</time>
   <time name="orth">    0.40    0.40</time>
   <time name="total">   37.98   38.14</time>
   <energy>
    <i name="e_fr_energy">    804.48535620 </i>
    <i name="e_wo_entrp">    804.32625035 </i>
    <i name="e_0_energy">    804.43232092 </i>
   </energy>
  </scstep>
  <scstep>
   <time name="diag">    4.37    4.38</time>
   <time name="diis">   30.72   30.88</time>
   <time name="orth">    0.39    0.39</time>
   <time name="total">   40.43   40.63</time>
   <energy>
    <i name="e_fr_energy">    804.44553821 </i>
    <i name="e_wo_entrp">    804.28602665 </i>
    <i name="e_0_energy">    804.39236769 </i>
   </energy>
  </scstep>
  <scstep>
   <time name="diag">    4.40    4.41</time>
   <time name="diis">   30.72   30.85</time>
   <time name="orth">    0.40    0.40</time>
   <time name="total">   40.48   40.66</time>
   <energy>
    <i name="e_fr_energy">    804.34253735 </i>
    <i name="e_wo_entrp">    804.18227187 </i>
    <i name="e_0_energy">    804.28911553 </i>
   </energy>
  </scstep>
  <scstep>
   <time name="diag">    4.38    4.42</time>
   <time name="diis">   30.11   30.23</time>
   <time name="orth">    0.40    0.40</time>
   <time name="total">   39.89   40.08</time>
   <energy>
    <i name="e_fr_energy">    804.18149422 </i>
    <i name="e_wo_entrp">    804.01994877 </i>
    <i name="e_0_energy">    804.12764574 </i>
   </energy>
  </scstep>
  <scstep>
   <time name="diag">    4.40    4.41</time>
   <time name="diis">   30.62   30.77</time>
   <time name="orth">    0.39    0.40</time>
   <time name="total">   40.44   40.64</time>
   <energy>
    <i name="e_fr_energy">    804.25538841 </i>
    <i name="e_wo_entrp">    804.09469581 </i>
    <i name="e_0_energy">    804.20182421 </i>
   </energy>
  </scstep>
  <scstep>
   <time name="diag">    4.40    4.42</time>
   <time name="diis">   29.85   29.97</time>
   <time name="orth">    0.40    0.40</time>
   <time name="total">   39.62   39.79</time>
   <energy>
    <i name="e_fr_energy">    804.37865625 </i>
    <i name="e_wo_entrp">    804.21905805 </i>
    <i name="e_0_energy">    804.32545685 </i>
   </energy>
  </scstep>
  <scstep>
   <time name="diag">    4.37    4.41</time>
   <time name="diis">   30.65   30.77</time>
   <time name="orth">    0.40    0.40</time>
   <time name="total">   40.41   40.60</time>
   <energy>
    <i name="e_fr_energy">    804.54093580 </i>
    <i name="e_wo_entrp">    804.38399438 </i>
    <i name="e_0_energy">    804.48862199 </i>
   </energy>
  </scstep>
  <scstep>
   <time name="diag">    4.41    4.42</time>
   <time name="diis">   29.49   29.64</time>
   <time name="orth">    0.39    0.39</time>
   <time name="total">   39.27   39.45</time>
   <energy>
    <i name="e_fr_energy">    804.52320041 </i>
    <i name="e_wo_entrp">    804.36625720 </i>
    <i name="e_0_energy">    804.47088601 </i>
   </energy>
  </scstep>
  <scstep>
   <time name="diag">    4.41    4.43</time>
   <time name="diis">   28.36   28.47</time>
   <time name="orth">    0.40    0.40</time>
   <time name="total">   35.35   35.50</time>
   <energy>
    <i name="alphaZ">    648.08823605 </i>
    <i name="ewald">  72997.16084270 </i>
    <i name="hartreedc">-114065.73379430 </i>
    <i name="XCdc">   1851.72188290 </i>
    <i name="pawpsdc">  32767.76163234 </i>
    <i name="pawaedc"> -31982.21030839 </i>
    <i name="eentropy">      0.15553021 </i>
    <i name="bandstr"> -10240.70329017 </i>
    <i name="atom">  48828.33605910 </i>
    <i name="e_fr_energy">    804.57679045 </i>
    <i name="e_wo_entrp">    804.42126024 </i>
    <i name="e_0_energy">    804.52494705 </i>
   </energy>
  </scstep>
  <structure>
   <crystal>
    <varray name="basis" >
     <v>      18.00000000       0.00000000       0.00000000 </v>
     <v>       0.00000000      18.00000000       0.00000000 </v>
     <v>       0.00000000       0.00000000      18.00000000 </v>
    </varray>
    <i name="volume">   5832.00000000 </i>
    <varray name="rec_basis" >
     <v>       0.05555556       0.00000000       0.00000000 </v>
     <v>       0.00000000       0.05555556       0.00000000 </v>
     <v>       0.00000000       0.00000000       0.05555556 </v>
    </varray>
   </crystal>
   <varray name="positions" >
    <v>       0.73691698       0.61028676       0.49525134 </v>
    <v>       0.62337438       0.74137376       0.49464457 </v>
    <v>       0.23939327       0.60844346       0.49673176 </v>
    <v>       0.44726174       0.73909519       0.50412486 </v>
    <v>       0.24355532       0.46304281       0.51682214 </v>
    <v>       0.45387881       0.25751229       0.47713713 </v>
    <v>       0.74223066       0.39102613       0.50033403 </v>
    <v>       0.63017903       0.25357198       0.49512974 </v>
    <v>       0.67994685       0.49867225       0.59083189 </v>
    <v>       0.29846817       0.50409347       0.63048196 </v>
    <v>       0.49878347       0.68403016       0.61721539 </v>
    <v>       0.50295537       0.30472837       0.61841121 </v>
    <v>       0.66930292       0.67266267       0.61774138 </v>
    <v>       0.33018507       0.67941341       0.61364431 </v>
    <v>       0.32253673       0.32912644       0.63560913 </v>
    <v>       0.67163053       0.32554933       0.62246464 </v>
    <v>       0.67374061       0.49981373       0.40614445 </v>
    <v>       0.30452199       0.50073659       0.37647603 </v>
    <v>       0.49237038       0.68108776       0.38117981 </v>
    <v>       0.51659562       0.31043804       0.37072577 </v>
    <v>       0.66174180       0.67036445       0.37507385 </v>
    <v>       0.33129614       0.66543677       0.39151422 </v>
    <v>       0.35920770       0.34167207       0.36554059 </v>
    <v>       0.68024512       0.32717384       0.38163834 </v>
    <v>       0.60083775       0.58651468       0.69248926 </v>
    <v>       0.38875189       0.60083652       0.69746537 </v>
    <v>       0.39260263       0.39648477       0.70720351 </v>
    <v>       0.60318211       0.41375596       0.69383759 </v>
    <v>       0.57568536       0.58091066       0.30587554 </v>
    <v>       0.41052289       0.58173734       0.28577159 </v>
    <v>       0.41439830       0.41127247       0.27579457 </v>
    <v>       0.59464595       0.41398415       0.30367405 </v>
    <v>       0.49070002       0.49595210       0.62279849 </v>
    <v>       0.39571023       0.40299995       0.51941558 </v>
    <v>       0.39704408       0.57416455       0.51011890 </v>
    <v>       0.48003250       0.48632178       0.39962747 </v>
    <v>       0.56966217       0.58922245       0.50097106 </v>
    <v>       0.57323595       0.40382136       0.50209298 </v>
   </varray>
  </structure>
  <varray name="forces" >
   <v>       0.28698242       0.33319173       0.20311546 </v>
   <v>      -0.11470092       0.13075697       0.25245332 </v>
   <v>      -0.18615949       0.09207471       0.05146949 </v>
   <v>      -0.32752497       0.30053599      -0.18930970 </v>
   <v>       0.15650621      -0.26715941      -0.47675080 </v>
   <v>      -0.18110777      -0.12642173       0.67832783 </v>
   <v>       0.14444128      -0.29472735       0.24705924 </v>
   <v>      -0.08150808      -0.10288835       0.32217538 </v>
   <v>      -0.17781410      -0.19844737      -0.06721812 </v>
   <v>       0.17461844       0.12369979       0.39964120 </v>
   <v>       0.12934851      -0.01856114      -0.03367187 </v>
   <v>       0.06143748       0.21881301      -0.25992319 </v>
   <v>       0.25681582       0.16616892      -0.28168617 </v>
   <v>      -0.11043885       0.03411895      -0.32189011 </v>
   <v>      -0.23824566      -0.24908166      -0.65618142 </v>
   <v>       0.16574464      -0.37972921      -0.28919760 </v>
   <v>      -0.23828596      -0.07617282      -0.08245664 </v>
   <v>       0.19978377       0.10708066       0.29230888 </v>
   <v>      -0.03765785       0.01595979      -0.08352007 </v>
   <v>       0.26344865       0.01363342      -0.15218209 </v>
   <v>      -0.12010118      -0.13286011       0.01080483 </v>
   <v>      -0.00585551       0.02427364       0.21240979 </v>
   <v>      -0.18151576       0.14477564       0.58360856 </v>
   <v>      -0.00003712       0.06321797      -0.05745327 </v>
   <v>      -0.36626182      -0.25122056       0.15998349 </v>
   <v>       0.25646645      -0.54814136       0.22868127 </v>
   <v>       0.69856770       0.51032130       0.04811626 </v>
   <v>      -0.58595326       0.20379331       0.01282763 </v>
   <v>      -0.17952171      -0.27777442      -0.35000252 </v>
   <v>       0.00918208      -0.22563294      -0.17585285 </v>
   <v>       0.11219533       0.36292193      -0.25353022 </v>
   <v>      -0.17888556       0.32706656      -0.37501409 </v>
   <v>      -0.19582113       0.02204829      -0.56401627 </v>
   <v>       0.30731846       0.33028695       0.13103080 </v>
   <v>       0.14793424      -0.11964884       0.03393663 </v>
   <v>       0.13081554      -0.01387429       0.58613348 </v>
   <v>      -0.01598208      -0.11649532       0.01267387 </v>
   <v>       0.02177174      -0.12590267       0.20309960 </v>
  </varray>
  <energy>
   <i name="e_fr_energy">    804.57679045 </i>
   <i name="e_wo_entrp">    804.52494705 </i>
   <i name="e_0_energy">      0.15553021 </i>
  </energy>
  <time name="totalsc"> 2174.39 2183.28</time>
 </calculation>
 <calculation>
  <scstep>
   <time name="diag">    4.42    4.44</time>
   <time name="diis">   23.67   23.76</time>
   <time name="orth">    0.40    0.40</time>
   <time name="total">   32.97   33.10</time>
   <energy>
    <i name="alphaZ">    648.08823605 </i>
    <i name="ewald">  73001.10894626 </i>
    <i name="hartreedc">-114071.96631630 </i>
    <i name="XCdc">   1851.60246009 </i>
    <i name="pawpsdc">  32768.31041579 </i>
    <i name="pawaedc"> -31982.75332580 </i>
    <i name="eentropy">      0.15163510 </i>
    <i name="bandstr"> -10238.41677808 </i>
    <i name="atom">  48828.33605910 </i>
    <i name="e_fr_energy">    804.46133220 </i>
    <i name="e_wo_entrp">    804.30969710 </i>
    <i name="e_0_energy">    804.41078717 </i>
   </energy>
  </scstep>
  <scstep>
   <time name="diag">    4.38    4.40</time>
   <time name="diis">   31.01   31.16</time>
   <time name="orth">    0.39    0.39</time>
   <time name="total">   40.25   40.43</time>
   <energy>
    <i name="e_fr_energy">    803.15694207 </i>
    <i name="e_wo_entrp">    803.03783697 </i>
    <i name="e_0_energy">    803.11724037 </i>
   </energy>
  </scstep>
  <scstep>
   <time name="diag">    4.36    4.37</time>
   <time name="diis">   30.67   30.82</time>
   <time name="orth">    0.39    0.39</time>
   <time name="total">   39.90   40.09</time>
   <energy>
    <i name="e_fr_energy">    804.26625735 </i>
    <i name="e_wo_entrp">    804.12510445 </i>
    <i name="e_0_energy">    804.21920638 </i>
   </energy>
  </scstep>
  <scstep>
   <time name="diag">    4.39    4.41</time>
   <time name="diis">   31.19   31.32</time>
   <time name="orth">    0.40    0.40</time>
   <time name="total">   40.44   40.61</time>
   <energy>
    <i name="e_fr_energy">    804.28829633 </i>
    <i name="e_wo_entrp">    804.14232847 </i>
    <i name="e_0_energy">    804.23964037 </i>
   </energy>
  </scstep>
  <scstep>
   <time name="diag">    4.40    4.42</time>
   <time name="diis">   30.69   30.87</time>
   <time name="orth">    0.39    0.39</time>
   <time name="total">   39.99   40.19</time>
   <energy>
    <i name="e_fr_energy">    804.28005351 </i>
    <i name="e_wo_entrp">    804.13067584 </i>
    <i name="e_0_energy">    804.23026095 </i>
   </energy>
  </scstep>
  <scstep>
   <time name="diag">    4.37    4.39</time>
   <time name="diis">   33.86   34.08</time>
   <time name="orth">    0.40    0.40</time>
   <time name="total">   43.08   43.34</time>
   <energy>
    <i name="e_fr_energy">    804.25147715 </i>
    <i name="e_wo_entrp">    804.10095514 </i>
    <i name="e_0_energy">    804.20130315 </i>
   </energy>
  </scstep>
  <scstep>
   <time name="diag">    4.40    4.43</time>
   <time name="diis">   31.40   31.52</time>
   <time name="orth">    0.40    0.40</time>
   <time name="total">   40.69   40.86</time>
   <energy>
    <i name="e_fr_energy">    804.23682368 </i>
    <i name="e_wo_entrp">    804.08524355 </i>
    <i name="e_0_energy">    804.18629697 </i>
   </energy>
  </scstep>
  <scstep>
   <time name="diag">    4.38    4.40</time>
   <time name="diis">   30.47   30.62</time>
   <time name="orth">    0.39    0.40</time>
   <time name="total">   39.73   39.92</time>
   <energy>
    <i name="e_fr_energy">    804.24016246 </i>
    <i name="e_wo_entrp">    804.08776451 </i>
    <i name="e_0_energy">    804.18936314 </i>
   </energy>
  </scstep>
  <scstep>
   <time name="diag">    4.39    4.41</time>
   <time name="diis">   30.00   30.14</time>
   <time name="orth">    0.40    0.40</time>
   <time name="total">   39.28   39.46</time>
   <energy>
    <i name="e_fr_energy">    804.27176296 </i>
    <i name="e_wo_entrp">    804.11621874 </i>
    <i name="e_0_energy">    804.21991489 </i>
   </energy>
  </scstep>
  <scstep>
   <time name="diag">    4.36    4.39</time>
   <time name="diis">   32.19   32.32</time>
   <time name="orth">    0.39    0.40</time>
   <time name="total">   41.43   41.61</time>
   <energy>
    <i name="e_fr_energy">    804.27066736 </i>
    <i name="e_wo_entrp">    804.11424844 </i>
    <i name="e_0_energy">    804.21852772 </i>
   </energy>
  </scstep>
  <scstep>
   <time name="diag">    4.39    4.41</time>
   <time name="diis">   28.26   28.40</time>
   <time name="orth">    0.40    0.40</time>
   <time name="total">   37.54   37.72</time>
   <energy>
    <i name="e_fr_energy">    804.25340534 </i>
    <i name="e_wo_entrp">    804.09631356 </i>
    <i name="e_0_energy">    804.20104141 </i>
   </energy>
  </scstep>
  <scstep>
   <time name="diag">    4.40    4.41</time>
   <time name="diis">   31.18   31.33</time>
   <time name="orth">    0.39    0.39</time>
   <time name="total">   40.45   40.64</time>
   <energy>
    <i name="e_fr_energy">    804.23607368 </i>
    <i name="e_wo_entrp">    804.07877459 </i>
    <i name="e_0_energy">    804.18364065 </i>
   </energy>
  </scstep>
  <scstep>
   <time name="diag">    4.39    4.41</time>
   <time name="diis">   29.25   29.37</time>
   <time name="orth">    0.40    0.40</time>
   <time name="total">   38.54   38.71</time>
   <energy>
    <i name="e_fr_energy">    804.22375208 </i>
    <i name="e_wo_entrp">    804.06663537 </i>
    <i name="e_0_energy">    804.17137984 </i>
   </energy>
  </scstep>
  <scstep>
   <time name="diag">    4.39    4.41</time>
   <time name="diis">   22.93   23.04</time>
   <time name="orth">    0.40    0.40</time>
   <time name="total">   32.24   32.39</time>
   <energy>
    <i name="e_fr_energy">    804.20880068 </i>
    <i name="e_wo_entrp">    804.05165130 </i>
    <i name="e_0_energy">    804.15641755 </i>
   </energy>
  </scstep>
  <scstep>
   <time name="diag">    4.39    4.41</time>
   <time name="diis">   28.85   28.97</time>
   <time name="orth">    0.39    0.40</time>
   <time name="total">   38.13   38.30</time>
   <energy>
    <i name="e_fr_energy">    804.20605345 </i>
    <i name="e_wo_entrp">    804.04965151 </i>
    <i name="e_0_energy">    804.15391947 </i>
   </energy>
  </scstep>
  <scstep>
   <time name="diag">    4.38    4.41</time>
   <time name="diis">   30.42   30.55</time>
   <time name="orth">    0.39    0.40</time>
   <time name="total">   39.72   39.90</time>
   <energy>
    <i name="e_fr_energy">    804.20154544 </i>
    <i name="e_wo_entrp">    804.04474516 </i>
    <i name="e_0_energy">    804.14927868 </i>
   </energy>
  </scstep>
  <scstep>
   <time name="diag">    4.41    4.42</time>
   <time name="diis">   28.60   28.74</time>
   <time name="orth">    0.39    0.39</time>
   <time name="total">   37.94   38.12</time>
   <energy>
    <i name="e_fr_energy">    804.19454641 </i>
    <i name="e_wo_entrp">    804.03750475 </i>
    <i name="e_0_energy">    804.14219919 </i>
   </energy>
  </scstep>
  <scstep>
   <time name="diag">    4.40    4.42</time>
   <time name="diis">   27.43   27.56</time>
   <time name="orth">    0.40    0.40</time>
   <time name="total">   36.77   36.95</time>
   <energy>
    <i name="e_fr_energy">    804.19034358 </i>
    <i name="e_wo_entrp">    804.03336710 </i>
    <i name="e_0_energy">    804.13801808 </i>
   </energy>
  </scstep>
  <scstep>
   <time name="diag">    4.38    4.40</time>
   <time name="diis">   18.03   18.13</time>
   <time name="orth">    0.40    0.40</time>
   <time name="total">   27.40   27.53</time>
   <energy>
    <i name="e_fr_energy">    804.18213110 </i>
    <i name="e_wo_entrp">    804.02510336 </i>
    <i name="e_0_energy">    804.12978852 </i>
   </energy>
  </scstep>
  <scstep>
   <time name="diag">    4.42    4.44</time>
   <time name="diis">   26.40   26.51</time>
   <time name="orth">    0.40    0.40</time>
   <time name="total">   35.81   35.97</time>
   <energy>
    <i name="e_fr_energy">    804.17907506 </i>
    <i name="e_wo_entrp">    804.02193573 </i>
    <i name="e_0_energy">    804.12669529 </i>
   </energy>
  </scstep>
  <scstep>
   <time name="diag">    4.36    4.40</time>
   <time name="diis">   29.93   30.05</time>
   <time name="orth">    0.40    0.40</time>
   <time name="total">   39.30   39.49</time>
   <energy>
    <i name="e_fr_energy">    804.18008456 </i>
    <i name="e_wo_entrp">    804.02319983 </i>
    <i name="e_0_energy">    804.12778965 </i>
   </energy>
  </scstep>
  <scstep>
   <time name="diag">    4.37    4.38</time>
   <time name="diis">   28.15   28.30</time>
   <time name="orth">    0.40    0.40</time>
   <time name="total">   37.54   37.71</time>
   <energy>
    <i name="e_fr_energy">    804.17475520 </i>
    <i name="e_wo_entrp">    804.01786865 </i>
    <i name="e_0_energy">    804.12245969 </i>
   </energy>
  </scstep>
  <scstep>
   <time name="diag">    4.43    4.45</time>
   <time name="diis">   18.63   18.71</time>
   <time name="orth">    0.40    0.40</time>
   <time name="total">   28.06   28.18</time>
   <energy>
    <i name="e_fr_energy">    804.16821103 </i>
    <i name="e_wo_entrp">    804.01130908 </i>
    <i name="e_0_energy">    804.11591038 </i>
   </energy>
  </scstep>
  <scstep>
   <time name="diag">    4.42    4.44</time>
   <time name="diis">   21.13   21.24</time>
   <time name="orth">    0.40    0.40</time>
   <time name="total">   30.58   30.73</time>
   <energy>
    <i name="e_fr_energy">    804.16207899 </i>
    <i name="e_wo_entrp">    804.00518045 </i>
    <i name="e_0_energy">    804.10977948 </i>
   </energy>
  </scstep>
  <scstep>
   <time name="diag">    4.43    4.45</time>
   <time name="diis">   19.95   20.04</time>
   <time name="orth">    0.39    0.39</time>
   <time name="total">   29.42   29.55</time>
   <energy>
    <i name="e_fr_energy">    804.15595775 </i>
    <i name="e_wo_entrp">    803.99909021 </i>
    <i name="e_0_energy">    804.10366857 </i>
   </energy>
  </scstep>
  <scstep>
   <time name="diag">    4.38    4.39</time>
   <time name="diis">   17.28   17.37</time>
   <time name="orth">    0.40    0.41</time>
   <time name="total">   26.72   26.85</time>
   <energy>
    <i name="e_fr_energy">    804.15003403 </i>
    <i name="e_wo_entrp">    803.99316284 </i>
    <i name="e_0_energy">    804.09774364 </i>
   </energy>
  </scstep>
  <scstep>
   <time name="diag">    4.44    4.47</time>
   <time name="diis">   19.43   19.51</time>
   <time name="orth">    0.39    0.40</time>
   <time name="total">   28.93   29.06</time>
   <energy>
    <i name="e_fr_energy">    804.14394324 </i>
    <i name="e_wo_entrp">    803.98709287 </i>
    <i name="e_0_energy">    804.09165978 </i>
   </energy>
  </scstep>
  <scstep>
   <time name="diag">    4.43    4.44</time>
   <time name="diis">   19.88   19.99</time>
   <time name="orth">    0.39    0.39</time>
   <time name="total">   29.41   29.55</time>
   <energy>
    <i name="e_fr_energy">    804.13782113 </i>
    <i name="e_wo_entrp">    803.98100118 </i>
    <i name="e_0_energy">    804.08554781 </i>
   </energy>
  </scstep>
  <scstep>
   <time name="diag">    4.41    4.42</time>
   <time name="diis">   18.23   18.30</time>
   <time name="orth">    0.40    0.40</time>
   <time name="total">   27.75   27.86</time>
   <energy>
    <i name="e_fr_energy">    804.13181997 </i>
    <i name="e_wo_entrp">    803.97498911 </i>
    <i name="e_0_energy">    804.07954302 </i>
   </energy>
  </scstep>
  <scstep>
   <time name="diag">    4.40    4.42</time>
   <time name="diis">   18.49   18.58</time>
   <time name="orth">    0.39    0.39</time>
   <time name="total">   28.03   28.17</time>
   <energy>
    <i name="e_fr_energy">    804.12589694 </i>
    <i name="e_wo_entrp">    803.96904608 </i>
    <i name="e_0_energy">    804.07361332 </i>
   </energy>
  </scstep>
  <scstep>
   <time name="diag">    4.36    4.38</time>
   <time name="diis">   17.31   17.39</time>
   <time name="orth">    0.39    0.40</time>
   <time name="total">   26.82   26.93</time>
   <energy>
    <i name="e_fr_energy">    804.12035443 </i>
    <i name="e_wo_entrp">    803.96350581 </i>
    <i name="e_0_energy">    804.06807155 </i>
   </energy>
  </scstep>
  <scstep>
   <time name="diag">    4.39    4.41</time>
   <time name="diis">   19.05   19.12</time>
   <time name="orth">    0.40    0.40</time>
   <time name="total">   28.59   28.72</time>
   <energy>
    <i name="e_fr_energy">    804.11454958 </i>
    <i name="e_wo_entrp">    803.95773564 </i>
    <i name="e_0_energy">    804.06227826 </i>
   </energy>
  </scstep>
  <scstep>
   <time name="diag">    4.39    4.41</time>
   <time name="diis">   17.51   17.59</time>
   <time name="orth">    0.39    0.40</time>
   <time name="total">   27.09   27.22</time>
   <energy>
    <i name="e_fr_energy">    804.10956415 </i>
    <i name="e_wo_entrp">    803.95276262 </i>
    <i name="e_0_energy">    804.05729697 </i>
   </energy>
  </scstep>
  <scstep>
   <time name="diag">    4.40    4.42</time>
   <time name="diis">   17.45   17.53</time>
   <time name="orth">    0.39    0.39</time>
   <time name="total">   27.05   27.17</time>
   <energy>
    <i name="e_fr_energy">    804.10670226 </i>
    <i name="e_wo_entrp">    803.94991087 </i>
    <i name="e_0_energy">    804.05443847 </i>
   </energy>
  </scstep>
  <scstep>
   <time name="diag">    4.41    4.44</time>
   <time name="diis">   17.98   18.07</time>
   <time name="orth">    0.39    0.39</time>
   <time name="total">   27.63   27.77</time>
   <energy>
    <i name="e_fr_energy">    804.10224417 </i>
    <i name="e_wo_entrp">    803.94544951 </i>
    <i name="e_0_energy">    804.04997928 </i>
   </energy>
  </scstep>
  <scstep>
   <time name="diag">    4.41    4.42</time>
   <time name="diis">   16.78   16.86</time>
   <time name="orth">    0.39    0.39</time>
   <time name="total">   26.43   26.54</time>
   <energy>
    <i name="e_fr_energy">    804.09824891 </i>
    <i name="e_wo_entrp">    803.94144500 </i>
    <i name="e_0_energy">    804.04598094 </i>
   </energy>
  </scstep>
  <scstep>
   <time name="diag">    4.41    4.42</time>
   <time name="diis">   15.38   15.46</time>
   <time name="orth">    0.39    0.40</time>
   <time name="total">   25.08   25.20</time>
   <energy>
    <i name="e_fr_energy">    804.09409825 </i>
    <i name="e_wo_entrp">    803.93727716 </i>
    <i name="e_0_energy">    804.04182456 </i>
   </energy>
  </scstep>
  <scstep>
   <time name="diag">    4.44    4.46</time>
   <time name="diis">   15.43   15.49</time>
   <time name="orth">    0.39    0.40</time>
   <time name="total">   25.17   25.28</time>
   <energy>
    <i name="e_fr_energy">    804.09017923 </i>
    <i name="e_wo_entrp">    803.93335313 </i>
    <i name="e_0_energy">    804.03790386 </i>
   </energy>
  </scstep>
  <scstep>
   <time name="diag">    4.43    4.46</time>
   <time name="diis">   14.79   14.84</time>
   <time name="orth">    0.40    0.41</time>
   <time name="total">   24.57   24.68</time>
   <energy>
    <i name="e_fr_energy">    804.08608108 </i>
    <i name="e_wo_entrp">    803.92925361 </i>
    <i name="e_0_energy">    804.03380525 </i>
   </energy>
  </scstep>
  <scstep>
   <time name="diag">    4.41    4.42</time>
   <time name="diis">   14.86   14.93</time>
   <time name="orth">    0.40    0.40</time>
   <time name="total">   24.60   24.71</time>
   <energy>
    <i name="e_fr_energy">    804.08212481 </i>
    <i name="e_wo_entrp">    803.92529443 </i>
    <i name="e_0_energy">    804.02984802 </i>
   </energy>
  </scstep>
  <scstep>
   <time name="diag">    4.39    4.41</time>
   <time name="diis">   14.69   14.76</time>
   <time name="orth">    0.40    0.40</time>
   <time name="total">   24.45   24.55</time>
   <energy>
    <i name="e_fr_energy">    804.07824304 </i>
    <i name="e_wo_entrp">    803.92141282 </i>
    <i name="e_0_energy">    804.02596630 </i>
   </energy>
  </scstep>
  <scstep>
   <time name="diag">    4.36    4.37</time>
   <time name="diis">   14.77   14.85</time>
   <time name="orth">    0.40    0.40</time>
   <time name="total">   24.50   24.63</time>
   <energy>
    <i name="e_fr_energy">    804.07428191 </i>
    <i name="e_wo_entrp">    803.91745324 </i>
    <i name="e_0_energy">    804.02200569 </i>
   </energy>
  </scstep>
  <scstep>
   <time name="diag">    4.39    4.41</time>
   <time name="diis">   13.85   13.91</time>
   <time name="orth">    0.39    0.40</time>
   <time name="total">   23.64   23.74</time>
   <energy>
    <i name="e_fr_energy">    804.07054795 </i>
    <i name="e_wo_entrp">    803.91371622 </i>
    <i name="e_0_energy">    804.01827071 </i>
   </energy>
  </scstep>
  <scstep>
   <time name="diag">    4.37    4.39</time>
   <time name="diis">   12.68   12.73</time>
   <time name="orth">    0.39    0.39</time>
   <time name="total">   22.49   22.60</time>
   <energy>
    <i name="e_fr_energy">    804.06679197 </i>
    <i name="e_wo_entrp">    803.90995853 </i>
    <i name="e_0_energy">    804.01451416 </i>
   </energy>
  </scstep>
  <scstep>
   <time name="diag">    4.39    4.41</time>
   <time name="diis">   12.93   12.99</time>
   <time name="orth">    0.40    0.40</time>
   <time name="total">   22.78   22.88</time>
   <energy>
    <i name="e_fr_energy">    804.06318964 </i>
    <i name="e_wo_entrp">    803.90635486 </i>
    <i name="e_0_energy">    804.01091138 </i>
   </energy>
  </scstep>
  <scstep>
   <time name="diag">    4.40    4.41</time>
   <time name="diis">   12.80   12.85</time>
   <time name="orth">    0.40    0.40</time>
   <time name="total">   22.61   22.70</time>
   <energy>
    <i name="e_fr_energy">    804.05960761 </i>
    <i name="e_wo_entrp">    803.90277191 </i>
    <i name="e_0_energy">    804.00732904 </i>
   </energy>
  </scstep>
  <scstep>
   <time name="diag">    4.39    4.41</time>
   <time name="diis">   16.06   16.19</time>
   <time name="orth">    0.39    0.40</time>
   <time name="total">   25.82   26.00</time>
   <energy>
    <i name="e_fr_energy">    804.05720755 </i>
    <i name="e_wo_entrp">    803.90034563 </i>
    <i name="e_0_energy">    804.00492024 </i>
   </energy>
  </scstep>
  <scstep>
   <time name="diag">    4.40    4.42</time>
   <time name="diis">   17.24   17.31</time>
   <time name="orth">    0.40    0.40</time>
   <time name="total">   27.01   27.12</time>
   <energy>
    <i name="e_fr_energy">    804.05583728 </i>
    <i name="e_wo_entrp">    803.89894187 </i>
    <i name="e_0_energy">    804.00353881 </i>
   </energy>
  </scstep>
  <scstep>
   <time name="diag">    4.38    4.41</time>
   <time name="diis">   14.39   14.47</time>
   <time name="orth">    0.39    0.39</time>
   <time name="total">   24.19   24.32</time>
   <energy>
    <i name="e_fr_energy">    804.05159937 </i>
    <i name="e_wo_entrp">    803.89471891 </i>
    <i name="e_0_energy">    803.99930588 </i>
   </energy>
  </scstep>
  <scstep>
   <time name="diag">    4.38    4.40</time>
   <time name="diis">   17.52   17.61</time>
   <time name="orth">    0.40    0.40</time>
   <time name="total">   27.32   27.44</time>
   <energy>
    <i name="e_fr_energy">    804.04841856 </i>
    <i name="e_wo_entrp">    803.89153708 </i>
    <i name="e_0_energy">    803.99612473 </i>
   </energy>
  </scstep>
  <scstep>
   <time name="diag">    4.40    4.42</time>
   <time name="diis">   16.03   16.12</time>
   <time name="orth">    0.39    0.39</time>
   <time name="total">   25.81   25.94</time>
   <energy>
    <i name="e_fr_energy">    804.04527401 </i>
    <i name="e_wo_entrp">    803.88839209 </i>
    <i name="e_0_energy">    803.99298004 </i>
   </energy>
  </scstep>
  <scstep>
   <time name="diag">    4.38    4.40</time>
   <time name="diis">   18.68   18.76</time>
   <time name="orth">    0.39    0.40</time>
   <time name="total">   28.46   28.59</time>
   <energy>
    <i name="e_fr_energy">    804.03943625 </i>
    <i name="e_wo_entrp">    803.88258489 </i>
    <i name="e_0_energy">    803.98715246 </i>
   </energy>
  </scstep>
  <scstep>
   <time name="diag">    4.40    4.42</time>
   <time name="diis">   15.61   15.68</time>
   <time name="orth">    0.40    0.40</time>
   <time name="total">   25.44   25.55</time>
   <energy>
    <i name="e_fr_energy">    804.03593761 </i>
    <i name="e_wo_entrp">    803.87908859 </i>
    <i name="e_0_energy">    803.98365460 </i>
   </energy>
  </scstep>
  <scstep>
   <time name="diag">    4.39    4.42</time>
   <time name="diis">   14.60   14.67</time>
   <time name="orth">    0.40    0.40</time>
   <time name="total">   24.44   24.56</time>
   <energy>
    <i name="e_fr_energy">    804.03297751 </i>
    <i name="e_wo_entrp">    803.87612381 </i>
    <i name="e_0_energy">    803.98069294 </i>
   </energy>
  </scstep>
  <scstep>
   <time name="diag">    4.39    4.41</time>
   <time name="diis">   15.75   15.82</time>
   <time name="orth">    0.40    0.40</time>
   <time name="total">   25.56   25.66</time>
   <energy>
    <i name="e_fr_energy">    804.03020277 </i>
    <i name="e_wo_entrp">    803.87334567 </i>
    <i name="e_0_energy">    803.97791707 </i>
   </energy>
  </scstep>
  <scstep>
   <time name="diag">    4.40    4.42</time>
   <time name="diis">   16.71   16.81</time>
   <time name="orth">    0.40    0.40</time>
   <time name="total">   26.48   26.62</time>
   <energy>
    <i name="e_fr_energy">    804.02692544 </i>
    <i name="e_wo_entrp">    803.87007251 </i>
    <i name="e_0_energy">    803.97464113 </i>
   </energy>
  </scstep>
  <scstep>
   <time name="diag">    4.38    4.40</time>
   <time name="diis">   28.12   28.24</time>
   <time name="orth">    0.40    0.40</time>
   <time name="total">   37.84   38.00</time>
   <energy>
    <i name="e_fr_energy">    804.01272573 </i>
    <i name="e_wo_entrp">    803.85596145 </i>
    <i name="e_0_energy">    803.96047097 </i>
   </energy>
  </scstep>
  <scstep>
   <time name="diag">    4.39    4.41</time>
   <time name="diis">   19.62   19.73</time>
   <time name="orth">    0.39    0.39</time>
   <time name="total">   29.37   29.53</time>
   <energy>
    <i name="e_fr_energy">    804.00711528 </i>
    <i name="e_wo_entrp">    803.85032218 </i>
    <i name="e_0_energy">    803.95485091 </i>
   </energy>
  </scstep>
  <scstep>
   <time name="diag">    4.39    4.41</time>
   <time name="diis">   17.10   17.17</time>
   <time name="orth">    0.39    0.40</time>
   <time name="total">   26.92   27.02</time>
   <energy>
    <i name="e_fr_energy">    804.00385569 </i>
    <i name="e_wo_entrp">    803.84706085 </i>
    <i name="e_0_energy">    803.95159074 </i>
   </energy>
  </scstep>
  <scstep>
   <time name="diag">    4.42    4.44</time>
   <time name="diis">   16.78   16.88</time>
   <time name="orth">    0.40    0.40</time>
   <time name="total">   23.78   23.91</time>
   <energy>
    <i name="alphaZ">    648.08823605 </i>
    <i name="ewald">  73001.10894626 </i>
    <i name="hartreedc">-114074.61583505 </i>
    <i name="XCdc">   1851.48196308 </i>
    <i name="pawpsdc">  32749.11271975 </i>
    <i name="pawaedc"> -31962.75954364 </i>
    <i name="eentropy">      0.15679359 </i>
    <i name="bandstr"> -10236.90907628 </i>
    <i name="atom">  48828.33605910 </i>
    <i name="e_fr_energy">    804.00026286 </i>
    <i name="e_wo_entrp">    803.84346927 </i>
    <i name="e_0_energy">    803.94799833 </i>
   </energy>
  </scstep>
  <structure>
   <crystal>
    <varray name="basis" >
     <v>      18.00000000       0.00000000       0.00000000 </v>
     <v>       0.00000000      18.00000000       0.00000000 </v>
     <v>       0.00000000       0.00000000      18.00000000 </v>
    </varray>
    <i name="volume">   5832.00000000 </i>
    <varray name="rec_basis" >
     <v>       0.05555556       0.00000000       0.00000000 </v>
     <v>       0.00000000       0.05555556       0.00000000 </v>
     <v>       0.00000000       0.00000000       0.05555556 </v>
    </varray>
   </crystal>
   <varray name="positions" >
    <v>       0.73707082       0.61046536       0.49536022 </v>
    <v>       0.62331290       0.74144385       0.49477989 </v>
    <v>       0.23929349       0.60849282       0.49675935 </v>
    <v>       0.44708617       0.73925628       0.50402339 </v>
    <v>       0.24363921       0.46289960       0.51656659 </v>
    <v>       0.45378173       0.25744452       0.47750073 </v>
    <v>       0.74230808       0.39086815       0.50046646 </v>
    <v>       0.63013534       0.25351683       0.49530244 </v>
    <v>       0.67985153       0.49856587       0.59079585 </v>
    <v>       0.29856177       0.50415977       0.63069618 </v>
    <v>       0.49885280       0.68402021       0.61719735 </v>
    <v>       0.50298830       0.30484566       0.61827188 </v>
    <v>       0.66944058       0.67275174       0.61759039 </v>
    <v>       0.33012587       0.67943170       0.61347177 </v>
    <v>       0.32240902       0.32899293       0.63525740 </v>
    <v>       0.67171937       0.32534578       0.62230962 </v>
    <v>       0.67361289       0.49977290       0.40610025 </v>
    <v>       0.30462908       0.50079399       0.37663271 </v>
    <v>       0.49235019       0.68109631       0.38113504 </v>
    <v>       0.51673684       0.31044535       0.37064419 </v>
    <v>       0.66167742       0.67029323       0.37507965 </v>
    <v>       0.33129300       0.66544978       0.39162808 </v>
    <v>       0.35911040       0.34174968       0.36585342 </v>
    <v>       0.68024510       0.32720772       0.38160754 </v>
    <v>       0.60064143       0.58638002       0.69257502 </v>
    <v>       0.38888937       0.60054270       0.69758794 </v>
    <v>       0.39297709       0.39675831       0.70722930 </v>
    <v>       0.60286802       0.41386520       0.69384446 </v>
    <v>       0.57558913       0.58076177       0.30568793 </v>
    <v>       0.41052781       0.58161639       0.28567732 </v>
    <v>       0.41445844       0.41146701       0.27565868 </v>
    <v>       0.59455007       0.41415947       0.30347303 </v>
    <v>       0.49059505       0.49596392       0.62249616 </v>
    <v>       0.39587496       0.40317699       0.51948581 </v>
    <v>       0.39712337       0.57410042       0.51013709 </v>
    <v>       0.48010262       0.48631434       0.39994165 </v>
    <v>       0.56965360       0.58916001       0.50097785 </v>
    <v>       0.57324762       0.40375387       0.50220185 </v>
   </varray>
  </structure>
  <varray name="forces" >
   <v>      -0.07577508       0.17017279      -0.02478599 </v>
   <v>      -0.09357999      -0.10514834       0.10340005 </v>
   <v>      -0.02802947      -0.07209620       0.07707184 </v>
   <v>      -0.22888121       0.09516461       0.22691169 </v>
   <v>       0.00969403      -0.37967942      -0.61515371 </v>
   <v>      -0.19943990      -0.06365511       0.53117683 </v>
   <v>       0.06831312      -0.13320507       0.04716250 </v>
   <v>      -0.13571831      -0.10345437       0.09401031 </v>
   <v>      -0.31811915      -0.04493270       0.07979411 </v>
   <v>       0.18070197       0.08266172       0.19852662 </v>
   <v>       0.21534289      -0.04102935       0.10144236 </v>
   <v>      -0.05267226       0.34816417      -0.36539726 </v>
   <v>      -0.01614043       0.03590999      -0.05452002 </v>
   <v>       0.04909293       0.15454500      -0.36792004 </v>
   <v>      -0.15959153      -0.21186817      -0.64025809 </v>
   <v>       0.12473240      -0.19366100      -0.07567793 </v>
   <v>      -0.07246757       0.08853039      -0.06883161 </v>
   <v>       0.36480544      -0.03786715       0.33273506 </v>
   <v>      -0.00782603      -0.02132680       0.11378863 </v>
   <v>       0.02682819      -0.06839739      -0.18964688 </v>
   <v>       0.04975462      -0.05188242      -0.10807960 </v>
   <v>      -0.12511195       0.00497860       0.25993811 </v>
   <v>      -0.13895520       0.00659056       0.59099964 </v>
   <v>       0.05141354       0.04385606      -0.09439086 </v>
   <v>      -0.36159814      -0.10185066       0.05988138 </v>
   <v>       0.39073485      -0.23128461       0.07368010 </v>
   <v>       0.67790206       0.31804525       0.11881768 </v>
   <v>      -0.54737848       0.25988989       0.13923603 </v>
   <v>       0.05274534      -0.27191545      -0.09476448 </v>
   <v>       0.04825890      -0.44363861      -0.12869602 </v>
   <v>       0.23496942       0.42915179      -0.29330783 </v>
   <v>      -0.31752953       0.28945606      -0.01859179 </v>
   <v>      -0.07251810       0.17093689      -0.50904997 </v>
   <v>       0.19469224       0.27469445      -0.05519920 </v>
   <v>       0.30540333      -0.05999969       0.01160779 </v>
   <v>       0.02214116      -0.04562114       0.54183357 </v>
   <v>      -0.07649772      -0.14278151       0.05270935 </v>
   <v>      -0.03969634       0.05254695      -0.05045235 </v>
  </varray>
  <energy>
   <i name="e_fr_energy">    804.00026286 </i>
   <i name="e_wo_entrp">    803.94799833 </i>
   <i name="e_0_energy">      0.15679359 </i>
  </energy>
  <time name="totalsc"> 1867.73 1876.41</time>
 </calculation>
 <calculation>
  <scstep>
   <time name="diag">    4.41    4.43</time>
   <time name="diis">   22.40   22.50</time>
   <time name="orth">    0.40    0.40</time>
   <time name="total">   31.71   31.84</time>
   <energy>
    <i name="alphaZ">    648.08823605 </i>
    <i name="ewald">  73013.78478226 </i>
    <i name="hartreedc">-114093.55683202 </i>
    <i name="XCdc">   1851.14843047 </i>
    <i name="pawpsdc">  32749.11146574 </i>
    <i name="pawaedc"> -31962.75822314 </i>
    <i name="eentropy">      0.14619027 </i>
    <i name="bandstr"> -10230.84443922 </i>
    <i name="atom">  48828.33605910 </i>
    <i name="e_fr_energy">    803.45566952 </i>
    <i name="e_wo_entrp">    803.30947925 </i>
    <i name="e_0_energy">    803.40693943 </i>
   </energy>
  </scstep>
  <scstep>
   <time name="diag">    4.39    4.42</time>
   <time name="diis">   27.84   27.95</time>
   <time name="orth">    0.40    0.40</time>
   <time name="total">   37.06   37.24</time>
   <energy>
    <i name="e_fr_energy">    803.20947942 </i>
    <i name="e_wo_entrp">    803.07118075 </i>
    <i name="e_0_energy">    803.16337986 </i>
   </energy>
  </scstep>
  <scstep>
   <time name="diag">    4.38    4.40</time>
   <time name="diis">   30.15   30.31</time>
   <time name="orth">    0.39    0.40</time>
   <time name="total">   39.35   39.54</time>
   <energy>
    <i name="e_fr_energy">    803.85120974 </i>
    <i name="e_wo_entrp">    803.70433346 </i>
[...]
    <v>       0.40182429       0.57950855       0.50245579 </v>
    <v>       0.48330534       0.48690720       0.40449027 </v>
    <v>       0.57047770       0.59118343       0.50047486 </v>
    <v>       0.57673103       0.40141233       0.50266463 </v>
   </varray>
  </structure>
  <varray name="forces" >
   <v>      -0.00785700      -0.00066128      -0.01017723 </v>
   <v>      -0.00089394      -0.00703458       0.00110393 </v>
   <v>      -0.00201846       0.00242688      -0.00951601 </v>
   <v>      -0.00013616       0.00286569       0.00959527 </v>
   <v>       0.00138645      -0.00141186      -0.01718530 </v>
   <v>       0.01340102       0.00779319       0.01493968 </v>
   <v>      -0.00524426      -0.00091897      -0.00400995 </v>
   <v>      -0.00657971      -0.00282891       0.01049607 </v>
   <v>       0.00944050       0.01326208      -0.00711312 </v>
   <v>      -0.00671850      -0.00734081       0.00499427 </v>
   <v>      -0.00773654      -0.00020755       0.00310262 </v>
   <v>       0.00694731       0.00808968       0.01355974 </v>
   <v>       0.00311347      -0.00776749      -0.00005252 </v>
   <v>      -0.01138344      -0.00452381      -0.00149983 </v>
   <v>       0.02502677       0.00466132       0.02961980 </v>
   <v>       0.01048882       0.00031265      -0.00275572 </v>
   <v>       0.00007248      -0.00592146      -0.00297085 </v>
   <v>       0.00393799       0.00796702      -0.00847275 </v>
   <v>       0.00279239       0.01208762      -0.00234606 </v>
   <v>      -0.00894754      -0.00347566      -0.00320413 </v>
   <v>      -0.00588265      -0.00395550      -0.00568577 </v>
   <v>      -0.00868413       0.00026763       0.01232846 </v>
   <v>      -0.00885366       0.01288938       0.00092075 </v>
   <v>      -0.00413844      -0.00521121      -0.00912377 </v>
   <v>       0.00322720      -0.00616204      -0.00576112 </v>
   <v>      -0.00711517      -0.01351776       0.01054050 </v>
   <v>       0.00654897       0.02265098       0.02740308 </v>
   <v>      -0.00315525      -0.00622873      -0.00073815 </v>
   <v>      -0.00029960      -0.00396757      -0.00250726 </v>
   <v>       0.00623187       0.01046894      -0.01314686 </v>
   <v>       0.01269848       0.00632838      -0.00200933 </v>
   <v>      -0.00130832      -0.01170193       0.00066453 </v>
   <v>      -0.00848236      -0.01334488       0.00429626 </v>
   <v>       0.00343860      -0.00104699      -0.02179247 </v>
   <v>      -0.00943694      -0.00053359      -0.00485619 </v>
   <v>      -0.00278327      -0.00178691      -0.00741994 </v>
   <v>       0.00134612      -0.00093827      -0.00250802 </v>
   <v>       0.00755691      -0.00158371       0.00128739 </v>
  </varray>
  <energy>
   <i name="e_fr_energy">    802.20557233 </i>
   <i name="e_wo_entrp">    802.16899097 </i>
   <i name="e_0_energy">      0.10974409 </i>
  </energy>
  <time name="totalsc">  157.24  157.63</time>
 </calculation>
 <calculation>
  <scstep>
   <time name="diag">    4.41    4.42</time>
   <time name="diis">   13.84   13.88</time>
   <time name="orth">    0.40    0.40</time>
   <time name="total">   23.16   23.23</time>
   <energy>
    <i name="alphaZ">    648.08823605 </i>
    <i name="ewald">  75964.52568186 </i>
    <i name="hartreedc">-117061.29443214 </i>
    <i name="XCdc">   1853.19773047 </i>
    <i name="pawpsdc">  32754.96935162 </i>
    <i name="pawaedc"> -31959.65405242 </i>
    <i name="eentropy">      0.10973918 </i>
    <i name="bandstr"> -10226.07275387 </i>
    <i name="atom">  48828.33605910 </i>
    <i name="e_fr_energy">    802.20555985 </i>
    <i name="e_wo_entrp">    802.09582066 </i>
    <i name="e_0_energy">    802.16898012 </i>
   </energy>
  </scstep>
  <scstep>
   <time name="diag">    4.40    4.41</time>
   <time name="diis">   26.36   26.42</time>
   <time name="orth">    0.39    0.39</time>
   <time name="total">   35.67   35.75</time>
   <energy>
    <i name="e_fr_energy">    802.20399516 </i>
    <i name="e_wo_entrp">    802.09442478 </i>
    <i name="e_0_energy">    802.16747170 </i>
   </energy>
  </scstep>
  <scstep>
   <time name="diag">    4.39    4.40</time>
   <time name="diis">   21.20   21.27</time>
   <time name="orth">    0.40    0.40</time>
   <time name="total">   30.52   30.61</time>
   <energy>
    <i name="e_fr_energy">    802.20538569 </i>
    <i name="e_wo_entrp">    802.09569938 </i>
    <i name="e_0_energy">    802.16882359 </i>
   </energy>
  </scstep>
  <scstep>
   <time name="diag">    4.38    4.40</time>
   <time name="diis">   17.16   17.21</time>
   <time name="orth">    0.39    0.39</time>
   <time name="total">   26.45   26.53</time>
   <energy>
    <i name="e_fr_energy">    802.20549104 </i>
    <i name="e_wo_entrp">    802.09573696 </i>
    <i name="e_0_energy">    802.16890635 </i>
   </energy>
  </scstep>
  <scstep>
   <time name="diag">    4.38    4.39</time>
   <time name="diis">   15.57   15.65</time>
   <time name="orth">    0.39    0.40</time>
   <time name="total">   22.55   22.66</time>
   <energy>
    <i name="alphaZ">    648.08823605 </i>
    <i name="ewald">  75964.52568186 </i>
    <i name="hartreedc">-117061.29394265 </i>
    <i name="XCdc">   1853.19773723 </i>
    <i name="pawpsdc">  32754.96799962 </i>
    <i name="pawaedc"> -31959.65212575 </i>
    <i name="eentropy">      0.10972659 </i>
    <i name="bandstr"> -10226.07385613 </i>
    <i name="atom">  48828.33605910 </i>
    <i name="e_fr_energy">    802.20551592 </i>
    <i name="e_wo_entrp">    802.09578932 </i>
    <i name="e_0_energy">    802.16894039 </i>
   </energy>
  </scstep>
  <structure>
   <crystal>
    <varray name="basis" >
     <v>      18.00000000       0.00000000       0.00000000 </v>
     <v>       0.00000000      18.00000000       0.00000000 </v>
     <v>       0.00000000       0.00000000      18.00000000 </v>
    </varray>
    <i name="volume">   5832.00000000 </i>
    <varray name="rec_basis" >
     <v>       0.05555556       0.00000000       0.00000000 </v>
     <v>       0.00000000       0.05555556       0.00000000 </v>
     <v>       0.00000000       0.00000000       0.05555556 </v>
    </varray>
   </crystal>
   <varray name="positions" >
    <v>       0.73391841       0.62471452       0.49521101 </v>
    <v>       0.61602214       0.74426860       0.49534071 </v>
    <v>       0.23472425       0.60226669       0.50320981 </v>
    <v>       0.44740937       0.74669485       0.50087203 </v>
    <v>       0.25143933       0.45329658       0.50054463 </v>
    <v>       0.45297383       0.25597957       0.50051773 </v>
    <v>       0.74253782       0.37234510       0.49918888 </v>
    <v>       0.62848055       0.24791059       0.50249011 </v>
    <v>       0.68180261       0.49693497       0.59013628 </v>
    <v>       0.30812234       0.50679548       0.62511238 </v>
    <v>       0.49498081       0.68910527       0.61986160 </v>
    <v>       0.50991139       0.30173089       0.62151025 </v>
    <v>       0.66621701       0.66914332       0.61909448 </v>
    <v>       0.32355934       0.68126081       0.59175663 </v>
    <v>       0.34221518       0.32882579       0.61912470 </v>
    <v>       0.67615626       0.32478079       0.62107479 </v>
    <v>       0.67550949       0.49756422       0.41029124 </v>
    <v>       0.31089467       0.51073792       0.37699615 </v>
    <v>       0.49256156       0.68584095       0.37940049 </v>
    <v>       0.51019292       0.31180846       0.37935562 </v>
    <v>       0.66060763       0.66402035       0.37287934 </v>
    <v>       0.32308955       0.68123812       0.41311784 </v>
    <v>       0.35392228       0.35134731       0.37402918 </v>
    <v>       0.67814032       0.32531074       0.38199220 </v>
    <v>       0.58147793       0.57687051       0.68876956 </v>
    <v>       0.39959966       0.58398243       0.69519369 </v>
    <v>       0.40938182       0.40375264       0.70276136 </v>
    <v>       0.58312176       0.41206997       0.69548049 </v>
    <v>       0.57147871       0.57119707       0.30509236 </v>
    <v>       0.40077170       0.58665266       0.30324927 </v>
    <v>       0.41495280       0.41262801       0.27986528 </v>
    <v>       0.58764699       0.41283254       0.30416939 </v>
    <v>       0.49382025       0.49667015       0.60204512 </v>
    <v>       0.40735144       0.40774110       0.51218437 </v>
    <v>       0.40182429       0.57950855       0.50245579 </v>
    <v>       0.48330534       0.48690720       0.40449027 </v>
    <v>       0.57047770       0.59118343       0.50047486 </v>
    <v>       0.57673103       0.40141233       0.50266463 </v>
   </varray>
  </structure>
  <varray name="forces" >
   <v>      -0.00561206       0.00157375      -0.00890969 </v>
   <v>       0.00109839      -0.00474225       0.00265620 </v>
   <v>       0.00041887       0.00340406      -0.00591924 </v>
   <v>       0.00190379       0.00512431       0.01152758 </v>
   <v>       0.00409339      -0.00096178      -0.01132995 </v>
   <v>       0.00880566       0.00944236       0.02206617 </v>
   <v>      -0.00314853       0.00024864      -0.00196157 </v>
   <v>      -0.00480315      -0.00140019       0.01243326 </v>
   <v>       0.01118447       0.01461997      -0.00453884 </v>
   <v>      -0.01358303      -0.00101182       0.00105198 </v>
   <v>      -0.00676711       0.00099139       0.00514141 </v>
   <v>       0.00778501       0.00230534       0.00869978 </v>
   <v>       0.00457879      -0.00599379       0.00219058 </v>
   <v>      -0.00972199      -0.00233375       0.00117457 </v>
   <v>      -0.01224288      -0.03588362       0.00767053 </v>
   <v>       0.01238571       0.00180472      -0.00093370 </v>
   <v>       0.00168946      -0.00389402      -0.00201716 </v>
   <v>       0.00575652       0.00881393      -0.00625992 </v>
   <v>       0.00447458       0.01424397      -0.00015626 </v>
   <v>      -0.00797715      -0.00175917      -0.00122141 </v>
   <v>      -0.00388049      -0.00152528      -0.00346760 </v>
   <v>      -0.00677843       0.00304947       0.01412199 </v>
   <v>      -0.00733640       0.01453140       0.00198605 </v>
   <v>      -0.00242349      -0.00359778      -0.00694782 </v>
   <v>       0.00520819      -0.00423824      -0.00188968 </v>
   <v>      -0.00930225      -0.00550447       0.00838921 </v>
   <v>      -0.01283397       0.00327400      -0.01786601 </v>
   <v>       0.00970983      -0.00507644      -0.00072542 </v>
   <v>       0.00104781      -0.00253717      -0.00041773 </v>
   <v>       0.00905497       0.01260773      -0.01167911 </v>
   <v>       0.01392752       0.00585601       0.00264660 </v>
   <v>      -0.00026915      -0.01010809       0.00249368 </v>
   <v>       0.00458770       0.00074306      -0.00450790 </v>
   <v>      -0.00567717      -0.01447801      -0.00666681 </v>
   <v>      -0.00789383       0.00150041      -0.00171255 </v>
   <v>       0.00015020       0.00090050      -0.00842859 </v>
   <v>       0.00256656       0.00104071      -0.00006276 </v>
   <v>       0.00982365      -0.00102986       0.00337013 </v>
  </varray>
  <energy>
   <i name="e_fr_energy">    802.20551592 </i>
   <i name="e_wo_entrp">    802.16894039 </i>
   <i name="e_0_energy">      0.10972659 </i>
  </energy>
  <time name="totalsc">  155.57  156.07</time>
 </calculation>
 <calculation>
  <scstep>
   <time name="diag">    4.37    4.39</time>
   <time name="diis">   22.84   22.94</time>
   <time name="orth">    0.39    0.40</time>
   <time name="total">   32.11   32.27</time>
   <energy>
    <i name="alphaZ">    648.08823605 </i>
    <i name="ewald">  75979.16713153 </i>
    <i name="hartreedc">-117075.62398024 </i>
    <i name="XCdc">   1853.23351282 </i>
    <i name="pawpsdc">  32754.96955395 </i>
    <i name="pawaedc"> -31959.65370734 </i>
    <i name="eentropy">      0.10938624 </i>
    <i name="bandstr"> -10226.42740926 </i>
    <i name="atom">  48828.33605910 </i>
    <i name="e_fr_energy">    802.19878285 </i>
    <i name="e_wo_entrp">    802.08939661 </i>
    <i name="e_0_energy">    802.16232077 </i>
   </energy>
  </scstep>
  <scstep>
   <time name="diag">    4.37    4.39</time>
   <time name="diis">   27.30   27.44</time>
   <time name="orth">    0.39    0.40</time>
   <time name="total">   36.56   36.75</time>
   <energy>
    <i name="e_fr_energy">    802.20523195 </i>
    <i name="e_wo_entrp">    802.09564827 </i>
    <i name="e_0_energy">    802.16870406 </i>
   </energy>
  </scstep>
  <scstep>
   <time name="diag">    4.40    4.42</time>
   <time name="diis">   31.79   31.95</time>
   <time name="orth">    0.40    0.40</time>
   <time name="total">   41.10   41.30</time>
   <energy>
    <i name="e_fr_energy">    802.20672675 </i>
    <i name="e_wo_entrp">    802.09734267 </i>
    <i name="e_0_energy">    802.17026539 </i>
   </energy>
  </scstep>
  <scstep>
   <time name="diag">    4.36    4.37</time>
   <time name="diis">   31.98   32.13</time>
   <time name="orth">    0.40    0.40</time>
   <time name="total">   41.22   41.40</time>
   <energy>
    <i name="e_fr_energy">    802.20657841 </i>
    <i name="e_wo_entrp">    802.09732926 </i>
    <i name="e_0_energy">    802.17016203 </i>
   </energy>
  </scstep>
  <scstep>
   <time name="diag">    4.41    4.43</time>
   <time name="diis">   25.06   25.17</time>
   <time name="orth">    0.39    0.40</time>
   <time name="total">   34.37   34.53</time>
   <energy>
    <i name="e_fr_energy">    802.20664617 </i>
    <i name="e_wo_entrp">    802.09721106 </i>
    <i name="e_0_energy">    802.17016780 </i>
   </energy>
  </scstep>
  <scstep>
   <time name="diag">    4.40    4.42</time>
   <time name="diis">   23.67   23.78</time>
   <time name="orth">    0.40    0.40</time>
   <time name="total">   30.67   30.81</time>
   <energy>
    <i name="alphaZ">    648.08823605 </i>
    <i name="ewald">  75979.16713153 </i>
    <i name="hartreedc">-117075.98175643 </i>
    <i name="XCdc">   1853.24904357 </i>
    <i name="pawpsdc">  32757.23456882 </i>
    <i name="pawaedc"> -31961.78439351 </i>
    <i name="eentropy">      0.10924240 </i>
    <i name="bandstr"> -10226.21148627 </i>
    <i name="atom">  48828.33605910 </i>
    <i name="e_fr_energy">    802.20664526 </i>
    <i name="e_wo_entrp">    802.09740286 </i>
    <i name="e_0_energy">    802.17023113 </i>
   </energy>
  </scstep>
  <structure>
   <crystal>
    <varray name="basis" >
     <v>      18.00000000       0.00000000       0.00000000 </v>
     <v>       0.00000000      18.00000000       0.00000000 </v>
     <v>       0.00000000       0.00000000      18.00000000 </v>
    </varray>
    <i name="volume">   5832.00000000 </i>
    <varray name="rec_basis" >
     <v>       0.05555556       0.00000000       0.00000000 </v>
     <v>       0.00000000       0.05555556       0.00000000 </v>
     <v>       0.00000000       0.00000000       0.05555556 </v>
    </varray>
   </crystal>
   <varray name="positions" >
    <v>       0.73393441       0.62471386       0.49523120 </v>
    <v>       0.61602898       0.74427441       0.49534340 </v>
    <v>       0.23482196       0.60224104       0.50324632 </v>
    <v>       0.44738799       0.74664596       0.50082449 </v>
    <v>       0.25143993       0.45331437       0.50060244 </v>
    <v>       0.45294412       0.25597711       0.50045240 </v>
    <v>       0.74258339       0.37233616       0.49919541 </v>
    <v>       0.62848814       0.24791618       0.50245035 </v>
    <v>       0.68173697       0.49689211       0.59016256 </v>
    <v>       0.30814996       0.50681513       0.62507271 </v>
    <v>       0.49499678       0.68910549       0.61985253 </v>
    <v>       0.50985691       0.30172030       0.62145986 </v>
    <v>       0.66620372       0.66916641       0.61907882 </v>
    <v>       0.32361983       0.68122949       0.59171014 </v>
    <v>       0.34226916       0.32893072       0.61902995 </v>
    <v>       0.67613235       0.32477181       0.62108721 </v>
    <v>       0.67549436       0.49759855       0.41030135 </v>
    <v>       0.31083657       0.51072167       0.37706097 </v>
    <v>       0.49252982       0.68580085       0.37940134 </v>
    <v>       0.51022955       0.31182745       0.37937647 </v>
    <v>       0.66063622       0.66402020       0.37291527 </v>
    <v>       0.32312870       0.68118900       0.41311990 </v>
    <v>       0.35393785       0.35128879       0.37406117 </v>
    <v>       0.67814527       0.32533429       0.38201889 </v>
    <v>       0.58140734       0.57683254       0.68874286 </v>
    <v>       0.39964074       0.58402240       0.69513435 </v>
    <v>       0.40937309       0.40368256       0.70271989 </v>
    <v>       0.58308172       0.41211959       0.69545586 </v>
    <v>       0.57146744       0.57117815       0.30511026 </v>
    <v>       0.40075115       0.58663023       0.30328653 </v>
    <v>       0.41490889       0.41260703       0.27983836 </v>
    <v>       0.58763053       0.41288756       0.30418396 </v>
    <v>       0.49396011       0.49672586       0.60219672 </v>
    <v>       0.40725055       0.40762685       0.51228180 </v>
    <v>       0.40164241       0.57968636       0.50247602 </v>
    <v>       0.48344678       0.48689943       0.40441201 </v>
    <v>       0.57054576       0.59119589       0.50047431 </v>
    <v>       0.57669105       0.40140467       0.50263644 </v>
   </varray>
  </structure>
  <varray name="forces" >
   <v>      -0.00786825       0.00021420      -0.00977488 </v>
   <v>      -0.00015016      -0.00488732       0.00132456 </v>
   <v>      -0.03898761       0.01223270      -0.01159314 </v>
   <v>       0.00968819       0.01894434       0.01537193 </v>
   <v>      -0.00056179      -0.00657819      -0.01765161 </v>
   <v>       0.01306800       0.00384496       0.01941466 </v>
   <v>      -0.01830358       0.00212152       0.00012958 </v>
   <v>      -0.00398243      -0.00217722       0.01437800 </v>
   <v>       0.02615303       0.01769790      -0.00897515 </v>
   <v>      -0.01085033      -0.00512638       0.02056176 </v>
   <v>      -0.00485663       0.00421062      -0.00146926 </v>
   <v>       0.02276063      -0.00128533       0.01833753 </v>
   <v>       0.00479441      -0.00808670       0.00605049 </v>
   <v>      -0.02311085       0.01628667       0.01555734 </v>
   <v>      -0.02690511      -0.04849295       0.03192828 </v>
   <v>       0.00842457       0.00191073      -0.00815930 </v>
   <v>       0.00787510      -0.01186065       0.00002527 </v>
   <v>       0.02196121       0.00516427      -0.02086732 </v>
   <v>       0.01019529       0.01327433      -0.00079362 </v>
   <v>      -0.01261318      -0.00705175      -0.01297536 </v>
   <v>      -0.00682341      -0.00145363      -0.01153315 </v>
   <v>      -0.01941170       0.01555391      -0.00006036 </v>
   <v>      -0.00677129       0.01748588      -0.00369770 </v>
   <v>       0.00027414      -0.00579745      -0.01277239 </v>
   <v>       0.02675196       0.01843543       0.01288533 </v>
   <v>      -0.01284990      -0.00986362       0.02428719 </v>
   <v>       0.00370061       0.02671495       0.00819359 </v>
   <v>       0.01075577      -0.02116005       0.01333893 </v>
   <v>       0.01011454       0.00803435      -0.00503402 </v>
   <v>       0.00411220       0.00468520      -0.01294895 </v>
   <v>       0.01101108       0.00523792       0.01357712 </v>
   <v>       0.00830994      -0.01919729      -0.00503612 </v>
   <v>      -0.06079265      -0.02166174      -0.06436269 </v>
   <v>       0.04703417       0.04993983      -0.04393355 </v>
   <v>       0.07716892      -0.07009109      -0.01003309 </v>
   <v>      -0.06127388       0.00357108       0.03194526 </v>
   <v>      -0.02709994      -0.00435000       0.00157784 </v>
   <v>       0.01905895       0.00356056       0.01278702 </v>
  </varray>
  <energy>
   <i name="e_fr_energy">    802.20664526 </i>
   <i name="e_wo_entrp">    802.17023113 </i>
   <i name="e_0_energy">      0.10924240 </i>
  </energy>
