Pt cube particle                        
           1
    18.000000    0.000000    0.000000
     0.000000   18.000000    0.000000
     0.000000    0.000000   18.000000
   Zr
  38
Direct configuration=     1
   0.73691698  0.61028676  0.49525134
   0.62337438  0.74137376  0.49464457
   0.23939327  0.60844346  0.49673176
   0.44726174  0.73909519  0.50412486
   0.24355532  0.46304281  0.51682214
   0.45387881  0.25751229  0.47713713
   0.74223066  0.39102613  0.50033403
   0.63017903  0.25357198  0.49512974
   0.67994685  0.49867225  0.59083189
   0.29846817  0.50409347  0.63048196
   0.49878347  0.68403016  0.61721539
   0.50295537  0.30472837  0.61841121
   0.66930292  0.67266267  0.61774138
   0.33018507  0.67941341  0.61364431
   0.32253673  0.32912644  0.63560913
   0.67163053  0.32554933  0.62246464
   0.67374061  0.49981373  0.40614445
   0.30452199  0.50073659  0.37647603
   0.49237038  0.68108776  0.38117981
   0.51659562  0.31043804  0.37072577
   0.66174180  0.67036445  0.37507385
   0.33129614  0.66543677  0.39151422
   0.35920770  0.34167207  0.36554059
   0.68024512  0.32717384  0.38163834
   0.60083775  0.58651468  0.69248926
   0.38875189  0.60083652  0.69746537
   0.39260263  0.39648477  0.70720351
   0.60318211  0.41375596  0.69383759
   0.57568536  0.58091066  0.30587554
   0.41052289  0.58173734  0.28577159
   0.41439830  0.41127247  0.27579457
   0.59464595  0.41398415  0.30367405
   0.49070002  0.49595210  0.62279849
   0.39571023  0.40299995  0.51941558
   0.39704408  0.57416455  0.51011890
   0.48003250  0.48632178  0.39962747
   0.56966217  0.58922245  0.50097106
   0.57323595  0.40382136  0.50209298
Direct configuration=     2
   0.73707082  0.61046536  0.49536022
   0.62331290  0.74144385  0.49477989
   0.23929349  0.60849282  0.49675935
   0.44708617  0.73925628  0.50402339
   0.24363921  0.46289960  0.51656659
   0.45378173  0.25744452  0.47750073
   0.74230808  0.39086815  0.50046646
   0.63013534  0.25351683  0.49530244
   0.67985153  0.49856587  0.59079585
   0.29856177  0.50415977  0.63069618
   0.49885280  0.68402021  0.61719735
   0.50298830  0.30484566  0.61827188
   0.66944058  0.67275174  0.61759039
   0.33012587  0.67943170  0.61347177
   0.32240902  0.32899293  0.63525740
   0.67171937  0.32534578  0.62230962
   0.67361289  0.49977290  0.40610025
   0.30462908  0.50079399  0.37663271
   0.49235019  0.68109631  0.38113504
   0.51673684  0.31044535  0.37064419
   0.66167742  0.67029323  0.37507965
   0.33129300  0.66544978  0.39162808
   0.35911040  0.34174968  0.36585342
   0.68024510  0.32720772  0.38160754
   0.60064143  0.58638002  0.69257502
   0.38888937  0.60054270  0.69758794
   0.39297709  0.39675831  0.70722930
   0.60286802  0.41386520  0.69384446
   0.57558913  0.58076177  0.30568793
   0.41052781  0.58161639  0.28567732
   0.41445844  0.41146701  0.27565868
   0.59455007  0.41415947  0.30347303
   0.49059505  0.49596392  0.62249616
   0.39587496  0.40317699  0.51948581
   0.39712337  0.57410042  0.51013709
   0.48010262  0.48631434  0.39994165
   0.56965360  0.58916001  0.50097785
   0.57324762  0.40375387  0.50220185
Direct configuration=     3
   0.73751841  0.61098502  0.49567701
   0.62313400  0.74164778  0.49517363
   0.23900314  0.60863642  0.49683963
   0.44657535  0.73972502  0.50372813
   0.24388331  0.46248293  0.51582302
   0.45349927  0.25724735  0.47855869
   0.74253336  0.39040848  0.50085179
   0.63000822  0.25335636  0.49580492
   0.67957420  0.49825636  0.59069102
   0.29883412  0.50435270  0.63131948
   0.49905454  0.68399126  0.61714483
   0.50308413  0.30518693  0.61786649
   0.66984112  0.67301090  0.61715105
   0.32995362  0.67948492  0.61296973
   0.32203744  0.32860445  0.63423399
   0.67197787  0.32475354  0.62185857
   0.67324124  0.49965409  0.40597165
   0.30494067  0.50096100  0.37708861
   0.49229146  0.68112121  0.38100478
   0.51714773  0.31046661  0.37040684
   0.66149010  0.67008602  0.37509650
   0.33128387  0.66548764  0.39195936
   0.35882730  0.34197548  0.36676365
   0.68024504  0.32730632  0.38151794
   0.60007019  0.58598820  0.69282454
   0.38928936  0.59968779  0.69794461
   0.39406661  0.39755424  0.70730435
   0.60195414  0.41418304  0.69386447
   0.57530914  0.58032853  0.30514205
   0.41054213  0.58126448  0.28540305
   0.41463343  0.41203304  0.27526326
   0.59427107  0.41466958  0.30288814
   0.49028964  0.49599831  0.62161649
   0.39635427  0.40369212  0.51969018
   0.39735410  0.57391381  0.51019002
   0.48030665  0.48629270  0.40085581
   0.56962867  0.58897832  0.50099762
   0.57328157  0.40355750  0.50251861
Direct configuration=     4
   0.73841359  0.61202435  0.49631058
   0.62277622  0.74205565  0.49596111
   0.23842246  0.60892363  0.49700017
   0.44555370  0.74066248  0.50313762
   0.24437150  0.46164958  0.51433590
   0.45293434  0.25685300  0.48067459
   0.74298392  0.38948914  0.50162244
   0.62975397  0.25303542  0.49680988
   0.67901955  0.49763735  0.59048134
   0.29937880  0.50473856  0.63256609
   0.49945802  0.68393336  0.61703980
   0.50327577  0.30586947  0.61705572
   0.67064220  0.67352923  0.61627239
   0.32960913  0.67959134  0.61196566
   0.32129428  0.32782749  0.63218716
   0.67249488  0.32356905  0.62095648
   0.67249796  0.49941649  0.40571444
   0.30556385  0.50129501  0.37800041
   0.49217399  0.68117099  0.38074425
   0.51796950  0.31050914  0.36993214
   0.66111547  0.66967159  0.37513020
   0.33126561  0.66556335  0.39262193
   0.35826110  0.34242708  0.36858410
   0.68024493  0.32750352  0.38133872
   0.59892770  0.58520457  0.69332357
   0.39008936  0.59797797  0.69865793
   0.39624565  0.39914608  0.70745443
   0.60012638  0.41481874  0.69390448
   0.57474916  0.57946207  0.30405029
   0.41057077  0.58056067  0.28485452
   0.41498340  0.41316511  0.27447242
   0.59371307  0.41568980  0.30171836
   0.48967882  0.49606708  0.61985715
   0.39731289  0.40472239  0.52009890
   0.39781555  0.57354059  0.51029588
   0.48071470  0.48624942  0.40268414
   0.56957882  0.58861493  0.50103716
   0.57334949  0.40316478  0.50315214
Direct configuration=     5
   0.73884204  0.61252178  0.49661382
   0.62260497  0.74225086  0.49633801
   0.23814453  0.60906109  0.49707702
   0.44506473  0.74111116  0.50285499
   0.24460515  0.46125073  0.51362414
   0.45266396  0.25666426  0.48168729
   0.74319956  0.38904913  0.50199128
   0.62963228  0.25288181  0.49729086
   0.67875408  0.49734108  0.59038099
   0.29963950  0.50492323  0.63316272
   0.49965112  0.68390565  0.61698953
   0.50336749  0.30619615  0.61666767
   0.67102561  0.67377731  0.61585185
   0.32944426  0.67964228  0.61148510
   0.32093860  0.32745562  0.63120753
   0.67274233  0.32300214  0.62052472
   0.67214221  0.49930277  0.40559134
   0.30586212  0.50145488  0.37843681
   0.49211777  0.68119482  0.38061956
   0.51836281  0.31052950  0.36970494
   0.66093617  0.66947324  0.37514633
   0.33125686  0.66559959  0.39293905
   0.35799011  0.34264322  0.36945538
   0.68024487  0.32759790  0.38125295
   0.59838090  0.58482951  0.69356242
   0.39047225  0.59715963  0.69899934
   0.39728856  0.39990796  0.70752627
   0.59925159  0.41512299  0.69392364
   0.57448114  0.57904737  0.30352776
   0.41058448  0.58022381  0.28459198
   0.41515090  0.41370692  0.27409392
   0.59344601  0.41617809  0.30115849
   0.48938647  0.49610000  0.61901512
   0.39777169  0.40521548  0.52029452
   0.39803641  0.57336196  0.51034654
   0.48091000  0.48622871  0.40355920
   0.56955496  0.58844101  0.50105608
   0.57338199  0.40297681  0.50345536
Direct configuration=     6
   0.73845079  0.61286467  0.49676959
   0.62242482  0.74209057  0.49646501
   0.23828930  0.60873782  0.49733262
   0.44464896  0.74122625  0.50310507
   0.24497271  0.46087620  0.51293751
   0.45231427  0.25682360  0.48274900
   0.74312995  0.38864445  0.50207719
   0.62955002  0.25276882  0.49745279
   0.67861235  0.49742778  0.59034110
   0.29976728  0.50513762  0.63322132
   0.49998263  0.68395740  0.61691634
   0.50311642  0.30646081  0.61646006
   0.67100892  0.67371323  0.61564707
   0.32960241  0.67954805  0.61076076
   0.32162844  0.32798798  0.63039015
   0.67282852  0.32271026  0.62041845
   0.67222533  0.49937071  0.40566461
   0.30656615  0.50145115  0.37899803
   0.49201912  0.68102566  0.38070376
   0.51832776  0.31040191  0.36967252
   0.66082963  0.66925399  0.37512539
   0.33109237  0.66557503  0.39353230
   0.35814534  0.34301694  0.37043666
   0.68034561  0.32758843  0.38111675
   0.59773488  0.58451209  0.69348177
   0.39101369  0.59659836  0.69895043
   0.39803663  0.39979237  0.70676418
   0.59811815  0.41533568  0.69382566
   0.57429195  0.57861664  0.30335047
   0.41061074  0.57965749  0.28468636
   0.41539945  0.41431899  0.27421978
   0.59286617  0.41671160  0.30104925
   0.48919147  0.49632197  0.61794373
   0.39785216  0.40554894  0.52036407
   0.39818496  0.57368676  0.51041036
   0.48086392  0.48630631  0.40410573
   0.56967586  0.58842430  0.50110956
   0.57361136  0.40283958  0.50344910
Direct configuration=     7
   0.73772881  0.61349741  0.49705703
   0.62209238  0.74179478  0.49669939
   0.23855644  0.60814127  0.49780430
   0.44388172  0.74143865  0.50356655
   0.24565100  0.46018508  0.51167044
   0.45166898  0.25711764  0.48470824
   0.74300149  0.38789768  0.50223572
   0.62939822  0.25256031  0.49775161
   0.67835079  0.49758778  0.59026748
   0.30000307  0.50553322  0.63332945
   0.50059438  0.68405290  0.61678127
   0.50265312  0.30694920  0.61607694
   0.67097810  0.67359498  0.61526917
   0.32989425  0.67937417  0.60942410
   0.32290143  0.32897037  0.62888179
   0.67298757  0.32217165  0.62022234
   0.67237872  0.49949609  0.40579982
   0.30786535  0.50144428  0.38003369
   0.49183708  0.68071351  0.38085912
   0.51826308  0.31016648  0.36961270
   0.66063303  0.66884941  0.37508673
   0.33078882  0.66552972  0.39462705
   0.35843180  0.34370658  0.37224746
   0.68053151  0.32757096  0.38086543
   0.59654275  0.58392634  0.69333294
   0.39201284  0.59556260  0.69886018
   0.39941706  0.39957907  0.70535786
   0.59602656  0.41572818  0.69364486
   0.57394281  0.57782178  0.30302331
   0.41065919  0.57861242  0.28486053
   0.41585810  0.41544848  0.27445204
   0.59179617  0.41769611  0.30084768
   0.48883162  0.49673160  0.61596664
   0.39800064  0.40616428  0.52049240
   0.39845911  0.57428614  0.51052813
   0.48077890  0.48644951  0.40511427
   0.56989897  0.58839347  0.50120827
   0.57403461  0.40258634  0.50343757
Direct configuration=     8
   0.73628485  0.61476290  0.49763191
   0.62142749  0.74120318  0.49716814
   0.23909073  0.60694817  0.49874766
   0.44234725  0.74186344  0.50448952
   0.24700758  0.45880283  0.50913631
   0.45037839  0.25770572  0.48862672
   0.74274458  0.38640413  0.50255279
   0.62909462  0.25214329  0.49834924
   0.67782768  0.49790777  0.59012025
   0.30047467  0.50632444  0.63354572
   0.50181787  0.68424389  0.61651115
   0.50172650  0.30792599  0.61531070
   0.67091648  0.67335847  0.61451338
   0.33047794  0.67902639  0.60675077
   0.32544742  0.33093514  0.62586507
   0.67330567  0.32109444  0.61983011
   0.67268548  0.49974685  0.40607023
   0.31046375  0.50143053  0.38210501
   0.49147300  0.68008921  0.38116984
   0.51813372  0.30969562  0.36949304
   0.66023984  0.66804025  0.37500943
   0.33018171  0.66543908  0.39681657
   0.35900472  0.34508588  0.37586905
   0.68090331  0.32753601  0.38036277
   0.59415848  0.58275484  0.69303529
   0.39401115  0.59349108  0.69867968
   0.40217794  0.39915248  0.70254521
   0.59184337  0.41651318  0.69328327
   0.57324453  0.57623205  0.30236899
   0.41075610  0.57652229  0.28520886
   0.41677540  0.41770746  0.27491657
   0.58965617  0.41966514  0.30044452
   0.48811192  0.49755086  0.61201247
   0.39829761  0.40739496  0.52074908
   0.39900740  0.57548490  0.51076366
   0.48060885  0.48673592  0.40713136
   0.57034518  0.58833180  0.50140568
   0.57488113  0.40207985  0.50341449
Direct configuration=     9
   0.73584185  0.61523617  0.49725049
   0.62115862  0.74125060  0.49665033
   0.23891144  0.60595479  0.49914593
   0.44249674  0.74206581  0.50427658
   0.24727146  0.45874526  0.50898209
   0.45002389  0.25838831  0.48916663
   0.74204956  0.38562747  0.50212799
   0.62915832  0.25268051  0.49835599
   0.67792048  0.49759106  0.59037999
   0.30034789  0.50664274  0.63278618
   0.50190384  0.68444324  0.61710549
   0.50219807  0.30766957  0.61564489
   0.67075774  0.67290577  0.61510367
   0.33044681  0.67931026  0.60592282
   0.32663917  0.33136150  0.62496794
   0.67273780  0.32162032  0.62001028
   0.67327161  0.49939055  0.40654023
   0.31117548  0.50107023  0.38209276
   0.49124377  0.67969912  0.38113468
   0.51772509  0.31014193  0.37020452
   0.66004657  0.66788817  0.37478432
   0.33009181  0.66576816  0.39769033
   0.35941577  0.34541830  0.37650210
   0.68057017  0.32768085  0.38035794
   0.59288184  0.58249796  0.69285192
   0.39514643  0.59278000  0.69840179
   0.40285046  0.39888025  0.70184977
   0.59020049  0.41619294  0.69269659
   0.57290328  0.57649669  0.30285820
   0.41061171  0.57654696  0.28612326
   0.41712504  0.41747204  0.27599066
   0.58900631  0.41950785  0.30112474
   0.48920715  0.49757013  0.61115906
   0.39865864  0.40798061  0.51986620
   0.39935805  0.57621820  0.51080830
   0.48084198  0.48639906  0.40718239
   0.57009162  0.58821663  0.50101918
   0.57504353  0.40202048  0.50288823
Direct configuration=    10
   0.73553447  0.61556455  0.49698584
   0.62097206  0.74128350  0.49629104
   0.23878705  0.60526553  0.49942228
   0.44260047  0.74220623  0.50412884
   0.24745456  0.45870531  0.50887509
   0.44977792  0.25886193  0.48954126
   0.74156732  0.38508857  0.50183324
   0.62920252  0.25305326  0.49836068
   0.67798487  0.49737130  0.59056021
   0.30025993  0.50686359  0.63225917
   0.50196349  0.68458156  0.61751789
   0.50252527  0.30749165  0.61587678
   0.67064759  0.67259167  0.61551326
   0.33042521  0.67950722  0.60534835
   0.32746607  0.33165732  0.62434546
   0.67234377  0.32198522  0.62013530
   0.67367830  0.49914332  0.40686635
   0.31166931  0.50082022  0.38208427
   0.49108471  0.67942846  0.38111028
   0.51744156  0.31045160  0.37069819
   0.65991247  0.66778265  0.37462813
   0.33002942  0.66599649  0.39829660
   0.35970099  0.34564895  0.37694134
   0.68033901  0.32778134  0.38035459
   0.59199604  0.58231972  0.69272468
   0.39593415  0.59228660  0.69820897
   0.40331709  0.39869137  0.70136723
   0.58906056  0.41597074  0.69228951
   0.57266650  0.57668031  0.30319764
   0.41051153  0.57656408  0.28675773
   0.41736764  0.41730868  0.27673593
   0.58855539  0.41939872  0.30159672
   0.48996708  0.49758351  0.61056692
   0.39890914  0.40838697  0.51925362
   0.39960136  0.57672700  0.51083927
   0.48100374  0.48616532  0.40721780
   0.56991568  0.58813672  0.50075101
   0.57515622  0.40197928  0.50252308
Direct configuration=    11
   0.73491971  0.61622130  0.49645654
   0.62059895  0.74134929  0.49557247
   0.23853826  0.60388701  0.49997497
   0.44280794  0.74248707  0.50383334
   0.24782075  0.45862541  0.50866109
   0.44928596  0.25980918  0.49029050
   0.74060283  0.38401077  0.50124374
   0.62929091  0.25379876  0.49837005
   0.67811365  0.49693179  0.59092065
   0.30008400  0.50730529  0.63120514
   0.50208280  0.68485820  0.61834267
   0.50317968  0.30713581  0.61634054
   0.67042730  0.67196345  0.61633242
   0.33038202  0.67990114  0.60419940
   0.32911989  0.33224898  0.62310049
   0.67155573  0.32271500  0.62038533
   0.67449168  0.49864887  0.40751858
   0.31265698  0.50032022  0.38206728
   0.49076660  0.67888712  0.38106149
   0.51687451  0.31107095  0.37168552
   0.65964426  0.66757160  0.37431574
   0.32990466  0.66645317  0.39950914
   0.36027141  0.34611026  0.37781982
   0.67987670  0.32798233  0.38034788
   0.59022444  0.58196325  0.69247021
   0.39750959  0.59129982  0.69782333
   0.40425036  0.39831360  0.70040215
   0.58678070  0.41552634  0.69147537
   0.57219294  0.57704755  0.30387653
   0.41031116  0.57659832  0.28802666
   0.41785284  0.41698197  0.27822645
   0.58765357  0.41918045  0.30254067
   0.49148695  0.49761025  0.60938264
   0.39941014  0.40919969  0.51802844
   0.40008797  0.57774462  0.51090122
   0.48132725  0.48569785  0.40728861
   0.56956382  0.58797689  0.50021467
   0.57538158  0.40189688  0.50179277
Direct configuration=    12
   0.73480471  0.61720643  0.49614382
   0.62015516  0.74158873  0.49518429
   0.23778559  0.60306599  0.50028481
   0.44371638  0.74328113  0.50331047
   0.24762477  0.45833627  0.50857457
   0.44906620  0.26032328  0.49047151
   0.74086883  0.38315599  0.50079030
   0.62925882  0.25334042  0.49855867
   0.67861377  0.49660023  0.59110795
   0.30076173  0.50786408  0.63068398
   0.50155522  0.68555062  0.61874798
   0.50390477  0.30588867  0.61645407
   0.67006795  0.67094311  0.61629009
   0.32994727  0.68058782  0.60288198
   0.33006612  0.33173280  0.62153335
   0.67116505  0.32336165  0.62050090
   0.67464494  0.49862666  0.40769201
   0.31243829  0.50064576  0.38149038
   0.49055537  0.67918291  0.38097968
   0.51635935  0.31106103  0.37289115
   0.65960268  0.66732663  0.37414483
   0.32942330  0.66728376  0.40095544
   0.35996085  0.34581893  0.37776381
   0.67938481  0.32784891  0.38031496
   0.58867647  0.58195688  0.69293247
   0.39914927  0.59008403  0.69787211
   0.40486826  0.39920739  0.70076535
   0.58522468  0.41472505  0.69144763
   0.57218219  0.57710517  0.30443480
   0.40951522  0.57723474  0.28943105
   0.41821126  0.41556303  0.27855383
   0.58766532  0.41872761  0.30323102
   0.49170035  0.49735350  0.60825139
   0.40084116  0.40982586  0.51754742
   0.40075242  0.57769844  0.51068481
   0.48193125  0.48622192  0.40729453
   0.57007497  0.58844381  0.50011165
   0.57480573  0.40256120  0.50169546
Direct configuration=    13
   0.73468091  0.61826683  0.49580722
   0.61967746  0.74184646  0.49476645
   0.23697542  0.60218224  0.50061832
   0.44469424  0.74413586  0.50274766
   0.24741383  0.45802504  0.50848144
   0.44882965  0.26087667  0.49066635
   0.74115516  0.38223591  0.50030223
   0.62922428  0.25284707  0.49876171
   0.67915210  0.49624335  0.59130956
   0.30149125  0.50846557  0.63012300
   0.50098734  0.68629595  0.61918425
   0.50468526  0.30454625  0.61657626
   0.66968114  0.66984482  0.61624453
   0.32947930  0.68132696  0.60146391
   0.33108464  0.33117719  0.61984647
   0.67074452  0.32405770  0.62062529
   0.67480989  0.49860275  0.40787869
   0.31220288  0.50099617  0.38086940
   0.49032800  0.67950129  0.38089162
   0.51580483  0.31105034  0.37418889
   0.65955792  0.66706293  0.37396086
   0.32890516  0.66817781  0.40251224
   0.35962656  0.34550534  0.37770352
   0.67885533  0.32770529  0.38027951
   0.58701024  0.58195002  0.69343004
   0.40091423  0.58877536  0.69792461
   0.40553338  0.40016947  0.70115629
   0.58354979  0.41386255  0.69141778
   0.57217061  0.57716720  0.30503572
   0.40865848  0.57791978  0.29094274
   0.41859706  0.41403568  0.27890622
   0.58767797  0.41824017  0.30397412
   0.49193005  0.49707714  0.60703371
   0.40238150  0.41049988  0.51702966
   0.40146762  0.57764873  0.51045186
   0.48258140  0.48678602  0.40730089
   0.57062518  0.58894640  0.50000076
   0.57418588  0.40327627  0.50159072
Direct configuration=    14
   0.73443332  0.62038762  0.49513401
   0.61872207  0.74236191  0.49393078
   0.23535508  0.60041475  0.50128535
   0.44664995  0.74584532  0.50162203
   0.24699194  0.45740257  0.50829519
   0.44835655  0.26198344  0.49105603
   0.74172781  0.38039574  0.49932607
   0.62915519  0.25186037  0.49916777
   0.68022877  0.49552959  0.59171277
   0.30295028  0.50966853  0.62900105
   0.49985158  0.68778659  0.62005680
   0.50624624  0.30186141  0.61682066
   0.66890752  0.66764823  0.61615341
   0.32854337  0.68280523  0.59862778
   0.33312169  0.33006596  0.61647273
   0.66990346  0.32544980  0.62087409
   0.67513981  0.49855494  0.40825205
   0.31173207  0.50169699  0.37962745
   0.48987325  0.68013806  0.38071550
   0.51469581  0.31102897  0.37678437
   0.65946841  0.66653554  0.37359291
   0.32786888  0.66996591  0.40562583
   0.35895797  0.34487817  0.37758293
   0.67779637  0.32741806  0.38020863
   0.58367777  0.58193631  0.69442519
   0.40444415  0.58615802  0.69802962
   0.40686361  0.40209362  0.70193819
   0.58020000  0.41213754  0.69135807
   0.57214746  0.57729125  0.30623756
   0.40694499  0.57928986  0.29396613
   0.41936867  0.41098099  0.27961099
   0.58770327  0.41726529  0.30546031
   0.49238945  0.49652441  0.60459836
   0.40546220  0.41184790  0.51599414
   0.40289804  0.57754932  0.50998597
   0.48388169  0.48791424  0.40731361
   0.57172561  0.58995159  0.49977897
   0.57294619  0.40470642  0.50138123
Direct configuration=    15
   0.73456776  0.61923601  0.49549957
   0.61924086  0.74208201  0.49438456
   0.23623494  0.60137451  0.50092315
   0.44558798  0.74491706  0.50223326
   0.24722103  0.45774058  0.50839633
   0.44861345  0.26138245  0.49084443
   0.74141686  0.38139497  0.49985613
   0.62919271  0.25239616  0.49894728
   0.67964413  0.49591717  0.59149382
   0.30215801  0.50901531  0.62961028
   0.50046831  0.68697716  0.61958299
   0.50539862  0.30331931  0.61668795
   0.66932760  0.66884100  0.61620289
   0.32905159  0.68200251  0.60016783
   0.33201555  0.33066937  0.61830471
   0.67036017  0.32469387  0.62073899
   0.67496066  0.49858090  0.40804931
   0.31198773  0.50131644  0.38030184
   0.49012018  0.67979229  0.38081113
   0.51529802  0.31104058  0.37537500
   0.65951701  0.66682192  0.37379271
   0.32843159  0.66899495  0.40393512
   0.35932102  0.34521873  0.37764841
   0.67837139  0.32757403  0.38024712
   0.58548733  0.58194376  0.69388481
   0.40252737  0.58757926  0.69797260
   0.40614128  0.40104878  0.70151361
   0.58201897  0.41307424  0.69139050
   0.57216003  0.57722389  0.30558495
   0.40787543  0.57854589  0.29232440
   0.41894968  0.41263972  0.27922829
   0.58768954  0.41779466  0.30465329
   0.49213999  0.49682455  0.60592078
   0.40378935  0.41111591  0.51655644
   0.40212131  0.57760330  0.51023895
   0.48317562  0.48730161  0.40730670
   0.57112807  0.58940576  0.49989940
   0.57361936  0.40392984  0.50149498
Direct configuration=    16
   0.73475205  0.62029356  0.49524539
   0.61882193  0.74256804  0.49425488
   0.23593782  0.60120816  0.50126837
   0.44656263  0.74543129  0.50194496
   0.24743735  0.45720899  0.50803429
   0.44835275  0.26118074  0.49124782
   0.74144318  0.38066942  0.49943239
   0.62904819  0.25203391  0.49923501
   0.68012867  0.49577832  0.59161260
   0.30326662  0.50924713  0.62952923
   0.49961958  0.68807404  0.61956588
   0.50550471  0.30205398  0.61704712
   0.66910599  0.66810738  0.61631525
   0.32847314  0.68227942  0.59808522
   0.33352077  0.33063016  0.61699968
   0.67049674  0.32496631  0.62031253
   0.67494484  0.49858964  0.40833553
   0.31171740  0.50204052  0.37977125
   0.49010164  0.68079437  0.38071074
   0.51470385  0.31070823  0.37636960
   0.65987231  0.66683750  0.37345593
   0.32750852  0.66991674  0.40578910
   0.35864870  0.34512210  0.37698865
   0.67812300  0.32719608  0.38072629
   0.58400097  0.58144047  0.69414762
   0.40411658  0.58639765  0.69827164
   0.40632287  0.40172884  0.70141840
   0.58081236  0.41258692  0.69176601
   0.57234364  0.57678040  0.30565249
   0.40662513  0.57889891  0.29398814
   0.41903071  0.41106691  0.27950527
   0.58800986  0.41767873  0.30492998
   0.49261729  0.49704013  0.60546232
   0.40402908  0.41078340  0.51632495
   0.40203963  0.57823057  0.50966245
   0.48338769  0.48808143  0.40639824
   0.57136252  0.58988060  0.50025958
   0.57453977  0.40379948  0.50193971
Direct configuration=    17
   0.73492847  0.62130599  0.49500206
   0.61842088  0.74303333  0.49413074
   0.23565338  0.60104891  0.50159886
   0.44749569  0.74592357  0.50166896
   0.24764443  0.45670008  0.50768770
   0.44810318  0.26098763  0.49163400
   0.74146838  0.37997483  0.49902673
   0.62890984  0.25168712  0.49951048
   0.68059253  0.49564540  0.59172632
   0.30432792  0.50946906  0.62945163
   0.49880706  0.68912411  0.61954949
   0.50560627  0.30084265  0.61739096
   0.66889383  0.66740507  0.61642282
   0.32791938  0.68254450  0.59609147
   0.33496177  0.33059262  0.61575034
   0.67062748  0.32522711  0.61990428
   0.67492970  0.49859800  0.40860954
   0.31145861  0.50273371  0.37926330
   0.49008388  0.68175369  0.38061462
   0.51413503  0.31039007  0.37732177
   0.66021245  0.66685241  0.37313352
   0.32662483  0.67079919  0.40756397
   0.35800507  0.34502959  0.37635704
   0.67788520  0.32683425  0.38118502
   0.58257804  0.58095866  0.69439922
   0.40563798  0.58526645  0.69855792
   0.40649671  0.40237988  0.70132725
   0.57965723  0.41212040  0.69212551
   0.57251942  0.57635584  0.30571716
   0.40542818  0.57923687  0.29558089
   0.41910828  0.40956121  0.27977043
   0.58831651  0.41756774  0.30519486
   0.49307422  0.49724651  0.60502342
   0.40425858  0.41046509  0.51610334
   0.40196145  0.57883108  0.50911054
   0.48359072  0.48882798  0.40552854
   0.57158698  0.59033518  0.50060439
   0.57542091  0.40367469  0.50236545
Direct configuration=    18
   0.73528131  0.62333084  0.49451540
   0.61761878  0.74396391  0.49388246
   0.23508449  0.60073040  0.50225984
   0.44936180  0.74690813  0.50111697
   0.24805861  0.45568227  0.50699452
   0.44760403  0.26060141  0.49240635
   0.74151879  0.37858564  0.49821542
   0.62863315  0.25099355  0.50006140
   0.68152026  0.49537956  0.59195375
   0.30645053  0.50991292  0.62929644
   0.49718202  0.69122425  0.61951672
   0.50580941  0.29841998  0.61807864
   0.66846952  0.66600045  0.61663795
   0.32681186  0.68307467  0.59210398
   0.33784375  0.33051755  0.61325165
   0.67088896  0.32574872  0.61908776
   0.67489941  0.49861473  0.40915754
   0.31094103  0.50412007  0.37824739
   0.49004837  0.68367233  0.38042240
   0.51299739  0.30975374  0.37922609
   0.66089272  0.66688224  0.37248869
   0.32485745  0.67256409  0.41111371
   0.35671780  0.34484457  0.37509381
   0.67740960  0.32611060  0.38210247
   0.57973218  0.57999503  0.69490242
   0.40868078  0.58300406  0.69913048
   0.40684439  0.40368195  0.70114495
   0.57734697  0.41118736  0.69284449
   0.57287098  0.57550671  0.30584649
   0.40303428  0.57991278  0.29876638
   0.41926343  0.40654981  0.28030074
   0.58892982  0.41734577  0.30572461
   0.49398809  0.49765928  0.60414562
   0.40471758  0.40982846  0.51566011
   0.40180507  0.58003209  0.50800673
   0.48399678  0.49032109  0.40378915
   0.57203589  0.59124434  0.50129400
   0.57718320  0.40342511  0.50321695
Direct configuration=    19
   0.73500475  0.62174371  0.49489686
   0.61824748  0.74323450  0.49407707
   0.23553040  0.60098005  0.50174175
   0.44789910  0.74613641  0.50154963
   0.24773397  0.45648005  0.50753785
   0.44799527  0.26090413  0.49180096
   0.74147928  0.37967452  0.49885134
   0.62885003  0.25153719  0.49962957
   0.68079309  0.49558793  0.59177548
   0.30478678  0.50956501  0.62941809
   0.49845576  0.68957811  0.61954241
   0.50565019  0.30031892  0.61753962
   0.66880211  0.66710142  0.61646933
   0.32767996  0.68265911  0.59522946
   0.33558479  0.33057639  0.61521018
   0.67068401  0.32533987  0.61972776
   0.67492315  0.49860162  0.40872800
   0.31134672  0.50303341  0.37904368
   0.49007621  0.68216846  0.38057307
   0.51388910  0.31025251  0.37773344
   0.66035951  0.66685886  0.37299412
   0.32624276  0.67118073  0.40833135
   0.35772679  0.34498959  0.37608395
   0.67778239  0.32667781  0.38138335
   0.58196283  0.58075034  0.69450800
   0.40629577  0.58477737  0.69868169
   0.40657187  0.40266136  0.70128784
   0.57915780  0.41191870  0.69228093
   0.57259542  0.57617228  0.30574512
   0.40491067  0.57938299  0.29626952
   0.41914182  0.40891021  0.27988507
   0.58844910  0.41751975  0.30530938
   0.49327178  0.49733574  0.60483366
   0.40435780  0.41032746  0.51600752
   0.40192764  0.57909071  0.50887192
   0.48367850  0.48915076  0.40515252
   0.57168402  0.59053173  0.50075347
   0.57580188  0.40362073  0.50254953
Direct configuration=    20
   0.73499137  0.62229668  0.49468982
   0.61823392  0.74362496  0.49417269
   0.23576397  0.60145598  0.50199984
   0.44822434  0.74622180  0.50128134
   0.24848350  0.45612177  0.50691632
   0.44787404  0.25994805  0.49250037
   0.74167328  0.37921890  0.49861558
   0.62867307  0.25110540  0.49985015
   0.68099961  0.49590166  0.59203626
   0.30559493  0.50946291  0.62945262
   0.49795000  0.69028428  0.61966753
   0.50559496  0.30008688  0.61808022
   0.66872969  0.66728419  0.61732998
   0.32719005  0.68243222  0.59388153
   0.33611104  0.33058103  0.61483527
   0.67140181  0.32476890  0.61987854
   0.67495396  0.49874872  0.40915010
   0.31152114  0.50365853  0.37905751
   0.49064150  0.68292852  0.38050272
   0.51363286  0.31039863  0.37799285
   0.66062083  0.66695131  0.37279030
   0.32512988  0.67220613  0.40930634
   0.35721911  0.34535700  0.37514088
   0.67804575  0.32622030  0.38177207
   0.58189901  0.58023388  0.69416002
   0.40658897  0.58459093  0.69886933
   0.40685172  0.40261296  0.70096875
   0.57905366  0.41178849  0.69286400
   0.57283257  0.57589301  0.30529328
   0.40354878  0.57950462  0.29759404
   0.41866231  0.40813265  0.28023189
   0.58861793  0.41754796  0.30516001
   0.49355065  0.49748958  0.60425424
   0.40452588  0.41027258  0.51502225
   0.40211739  0.57919358  0.50794581
   0.48318556  0.48850956  0.40531771
   0.57105553  0.59064826  0.50072846
   0.57558592  0.40364765  0.50269387
Direct configuration=    21
   0.73498116  0.62271886  0.49453176
   0.61822356  0.74392306  0.49424569
   0.23594230  0.60181933  0.50219689
   0.44847264  0.74628700  0.50107650
   0.24905574  0.45584823  0.50644181
   0.44778147  0.25921811  0.49303434
   0.74182140  0.37887105  0.49843558
   0.62853797  0.25077574  0.50001856
   0.68115729  0.49614117  0.59223535