unknown system                          
   1.00000000000000     
     3.950000    0.000000    0.000000
     0.000000    3.950000    0.000000
     0.000000    0.000000    3.950000
   Sr   Fe   O 
     1     1     3
Direct
  0.500000  0.500000  0.500000
  0.000000  0.000000  0.000000
  0.500000  0.000000  0.000000
  0.000000  0.500000  0.000000
  0.000000  0.000000  0.500000
 
   36   36   36
  1260.5      1203.6      1044.3      814.79      561.60      333.82      167.71      75.063      41.709      38.031    
  44.283      60.193      91.911      145.93      223.30      315.87      406.28      472.79      497.31      472.79    
  406.28      315.87      223.30      145.93      91.911      60.193      44.283      38.031      41.709      75.063    
  167.71      333.82      561.60      814.79      1044.3      1203.6      1203.6      1148.6      994.74      773.66    
  530.90      313.81      156.84      70.449      40.095      36.890      42.941      58.136      88.221      139.59    
  213.46      302.16      389.03      453.05      476.67      453.05      389.03      302.16      213.46      139.59    
  88.221      58.136      42.941      36.890      40.095      70.449      156.84      313.81      530.90      773.66    
  994.74      1148.6      1044.3      994.74      856.64      660.00      446.91      259.84      128.11      58.582    
  35.941      33.725      39.208      52.521      78.176      122.20      186.23      263.92      340.61      397.44    
  418.46      397.44      340.61      263.92      186.23      122.20      78.176      52.521      39.208      33.725    
  35.941      58.582      128.11      259.84      446.91      660.00      856.64      994.74      814.79      773.66    
  660.00      500.50      331.48      187.81      91.350      44.253      30.691      29.213      33.861      44.737    
  64.441      98.160      147.97      209.39      270.81      316.71      333.76      316.71      270.81      209.39    
  147.97      98.160      64.441      44.737      33.861      29.213      30.691      44.253      91.350      187.81    
  331.48      500.50      660.00      773.66      561.60      530.90      446.91      331.48      213.15      117.43    
  57.919      32.246      25.236      24.213      27.884      36.270      50.206      73.148      107.39      150.44    
  194.20      227.28      239.64      227.28      194.20      150.44      107.39      73.148      50.206      36.270    
  27.884      24.213      25.236      32.246      57.919      117.43      213.15      331.48      446.91      530.90    
  333.82      313.81      259.84      187.81      117.43      64.628      35.454      24.379      20.137      19.494    
  22.172      28.168      37.744      51.911      72.545      98.793      125.94      146.72      154.54      146.72    
  125.94      98.793      72.545      51.911      37.744      28.168      22.172      19.494      20.137      24.379    
  35.454      64.628      117.43      187.81      259.84      313.81      167.71      156.84      128.11      91.350    
  57.919      35.454      24.398      18.864      15.998      15.559      17.316      21.257      27.552      36.278    
  47.616      61.561      76.007      87.164      91.384      87.164      76.007      61.561      47.616      36.278    
  27.552      21.257      17.316      15.559      15.998      18.864      24.398      35.454      57.919      91.350    
  128.11      156.84      75.063      70.449      58.582      44.253      32.246      24.379      18.864      15.088    
  13.066      12.608      13.557      15.899      19.714      25.024      31.575      38.730      45.651      50.875    
  52.840      50.875      45.651      38.730      31.575      25.024      19.714      15.899      13.557      12.608    
  13.066      15.088      18.864      24.379      32.246      44.253      58.582      70.449      41.709      40.095    
  35.941      30.691      25.236      20.137      15.998      13.066      11.319      10.624      10.877      12.048    
  14.148      17.144      20.856      24.866      28.534      31.130      32.070      31.130      28.534      24.866    
  20.856      17.144      14.148      12.048      10.877      10.624      11.319      13.066      15.998      20.137    
  25.236      30.691      35.941      40.095      38.031      36.890      33.725      29.213      24.213      19.494    
  15.559      12.608      10.624      9.5000      9.1320      9.4533      10.418      11.955      13.918      16.051    
  17.996      19.368      19.864      19.368      17.996      16.051      13.918      11.955      10.418      9.4533    
  9.1320      9.5000      10.624      12.608      15.559      19.494      24.213      29.213      33.725      36.890    
  44.283      42.941      39.208      33.861      27.884      22.172      17.316      13.557      10.877      9.1320    
  8.1593      7.8263      8.0279      8.6613      9.5975      10.664      11.651      12.349      12.601      12.349    
  11.651      10.664      9.5975      8.6613      8.0279      7.8263      8.1593      9.1320      10.877      13.557    
  17.316      22.172      27.884      33.861      39.208      42.941      60.193      58.136      52.521      44.737    
  36.270      28.168      21.257      15.899      12.048      9.4533      7.8263      6.9257      6.5691      6.6157    
  6.9389      7.4059      7.8755      8.2182      8.3432      8.2182      7.8755      7.4059      6.9389      6.6157    
  6.5691      6.9257      7.8263      9.4533      12.048      15.899      21.257      28.168      36.270      44.737    
  52.521      58.136      91.911      88.221      78.176      64.441      50.206      37.744      27.552      19.714    
  14.148      10.418      8.0279      6.5691      5.7492      5.3712      5.2957      5.4034      5.5797      5.7267    
  5.7824      5.7267      5.5797      5.4034      5.2957      5.3712      5.7492      6.5691      8.0279      10.418    
  14.148      19.714      27.552      37.744      50.206      64.441      78.176      88.221      145.93      139.59    
  122.20      98.160      73.148      51.911      36.278      25.024      17.144      11.955      8.6613      6.6157    
  5.3712      4.6495      4.2823      4.1481      4.1380      4.1645      4.1781      4.1645      4.1380      4.1481    
  4.2823      4.6495      5.3712      6.6157      8.6613      11.955      17.144      25.024      36.278      51.911    
  73.148      98.160      122.20      139.59      223.30      213.46      186.23      147.97      107.39      72.545    
  47.616      31.575      20.856      13.918      9.5975      6.9389      5.2957      4.2823      3.6874      3.3770    
  3.2384      3.1840      3.1695      3.1840      3.2384      3.3770      3.6874      4.2823      5.2957      6.9389    
  9.5975      13.918      20.856      31.575      47.616      72.545      107.39      147.97      186.23      213.46    
  315.87      302.16      263.92      209.39      150.44      98.793      61.561      38.730      24.866      16.051    
  10.664      7.4059      5.4034      4.1481      3.3770      2.9391      2.7126      2.6048      2.5718      2.6048    
  2.7126      2.9391      3.3770      4.1481      5.4034      7.4059      10.664      16.051      24.866      38.730    
  61.561      98.793      150.44      209.39      263.92      302.16      406.28      389.03      340.61      270.81    
  194.20      125.94      76.007      45.651      28.534      17.996      11.651      7.8755      5.5797      4.1380    
  3.2384      2.7126      2.4294      2.2886      2.2445      2.2886      2.4294      2.7126      3.2384      4.1380    
  5.5797      7.8755      11.651      17.996      28.534      45.651      76.007      125.94      194.20      270.81    
  340.61      389.03      472.79      453.05      397.44      316.71      227.28      146.72      87.164      50.875    
  31.130      19.368      12.349      8.2182      5.7267      4.1645      3.1840      2.6048      2.2886      2.1296    
  2.0795      2.1296      2.2886      2.6048      3.1840      4.1645      5.7267      8.2182      12.349      19.368    
  31.130      50.875      87.164      146.72      227.28      316.71      397.44      453.05      497.31      476.67    
  418.46      333.76      239.64      154.54      91.384      52.840      32.070      19.864      12.601      8.3432    
  5.7824      4.1781      3.1695      2.5718      2.2445      2.0795      2.0275      2.0795      2.2445      2.5718    
  3.1695      4.1781      5.7824      8.3432      12.601      19.864      32.070      52.840      91.384      154.54    
  239.64      333.76      418.46      476.67      472.79      453.05      397.44      316.71      227.28      146.72    
  87.164      50.875      31.130      19.368      12.349      8.2182      5.7267      4.1645      3.1840      2.6048    
  2.2886      2.1296      2.0795      2.1296      2.2886      2.6048      3.1840      4.1645      5.7267      8.2182    
  12.349      19.368      31.130      50.875      87.164      146.72      227.28      316.71      397.44      453.05    
  406.28      389.03      340.61      270.81      194.20      125.94      76.007      45.651      28.534      17.996    
  11.651      7.8755      5.5797      4.1380      3.2384      2.7126      2.4294      2.2886      2.2445      2.2886    
  2.4294      2.7126      3.2384      4.1380      5.5797      7.8755      11.651      17.996      28.534      45.651    
  76.007      125.94      194.20      270.81      340.61      389.03      315.87      302.16      263.92      209.39    
  150.44      98.793      61.561      38.730      24.866      16.051      10.664      7.4059      5.4034      4.1481    
  3.3770      2.9391      2.7126      2.6048      2.5718      2.6048      2.7126      2.9391      3.3770      4.1481    
  5.4034      7.4059      10.664      16.051      24.866      38.730      61.561      98.793      150.44      209.39    
  263.92      302.16      223.30      213.46      186.23      147.97      107.39      72.545      47.616      31.575    
  20.856      13.918      9.5975      6.9389      5.2957      4.2823      3.6874      3.3770      3.2384      3.1840    
  3.1695      3.1840      3.2384      3.3770      3.6874      4.2823      5.2957      6.9389      9.5975      13.918    
  20.856      31.575      47.616      72.545      107.39      147.97      186.23      213.46      145.93      139.59    
  122.20      98.160      73.148      51.911      36.278      25.024      17.144      11.955      8.6613      6.6157    
  5.3712      4.6495      4.2823      4.1481      4.1380      4.1645      4.1781      4.1645      4.1380      4.1481    
  4.2823      4.6495      5.3712      6.6157      8.6613      11.955      17.144      25.024      36.278      51.911    
  73.148      98.160      122.20      139.59      91.911      88.221      78.176      64.441      50.206      37.744    
  27.552      19.714      14.148      10.418      8.0279      6.5691      5.7492      5.3712      5.2957      5.4034    
  5.5797      5.7267      5.7824      5.7267      5.5797      5.4034      5.2957      5.3712      5.7492      6.5691    
  8.0279      10.418      14.148      19.714      27.552      37.744      50.206      64.441      78.176      88.221    
  60.193      58.136      52.521      44.737      36.270      28.168      21.257      15.899      12.048      9.4533    
  7.8263      6.9257      6.5691      6.6157      6.9389      7.4059      7.8755      8.2182      8.3432      8.2182    
  7.8755      7.4059      6.9389      6.6157      6.5691      6.9257      7.8263      9.4533      12.048      15.899    
  21.257      28.168      36.270      44.737      52.521      58.136      44.283      42.941      39.208      33.861    
  27.884      22.172      17.316      13.557      10.877      9.1320      8.1593      7.8263      8.0279      8.6613    
  9.5975      10.664      11.651      12.349      12.601      12.349      11.651      10.664      9.5975      8.6613    
  8.0279      7.8263      8.1593      9.1320      10.877      13.557      17.316      22.172      27.884      33.861    
  39.208      42.941      38.031      36.890      33.725      29.213      24.213      19.494      15.559      12.608    
  10.624      9.5000      9.1320      9.4533      10.418      11.955      13.918      16.051      17.996      19.368    
  19.864      19.368      17.996      16.051      13.918      11.955      10.418      9.4533      9.1320      9.5000    
  10.624      12.608      15.559      19.494      24.213      29.213      33.725      36.890      41.709      40.095    
  35.941      30.691      25.236      20.137      15.998      13.066      11.319      10.624      10.877      12.048    
  14.148      17.144      20.856      24.866      28.534      31.130      32.070      31.130      28.534      24.866    
  20.856      17.144      14.148      12.048      10.877      10.624      11.319      13.066      15.998      20.137    
  25.236      30.691      35.941      40.095      75.063      70.449      58.582      44.253      32.246      24.379    
  18.864      15.088      13.066      12.608      13.557      15.899      19.714      25.024      31.575      38.730    
  45.651      50.875      52.840      50.875      45.651      38.730      31.575      25.024      19.714      15.899    
  13.557      12.608      13.066      15.088      18.864      24.379      32.246      44.253      58.582      70.449    
  167.71      156.84      128.11      91.350      57.919      35.454      24.398      18.864      15.998      15.559    
  17.316      21.257      27.552      36.278      47.616      61.561      76.007      87.164      91.384      87.164    
  76.007      61.561      47.616      36.278      27.552      21.257      17.316      15.559      15.998      18.864    
  24.398      35.454      57.919      91.350      128.11      156.84      333.82      313.81      259.84      187.81    
  117.43      64.628      35.454      24.379      20.137      19.494      22.172      28.168      37.744      51.911    
  72.545      98.793      125.94      146.72      154.54      146.72      125.94      98.793      72.545      51.911    
  37.744      28.168      22.172      19.494      20.137      24.379      35.454      64.628      117.43      187.81    
  259.84      313.81      561.60      530.90      446.91      331.48      213.15      117.43      57.919      32.246    
  25.236      24.213      27.884      36.270      50.206      73.148      107.39      150.44      194.20      227.28    
  239.64      227.28      194.20      150.44      107.39      73.148      50.206      36.270      27.884      24.213    
  25.236      32.246      57.919      117.43      213.15      331.48      446.91      530.90      814.79      773.66    
  660.00      500.50      331.48      187.81      91.350      44.253      30.691      29.213      33.861      44.737    
  64.441      98.160      147.97      209.39      270.81      316.71      333.76      316.71      270.81      209.39    
  147.97      98.160      64.441      44.737      33.861      29.213      30.691      44.253      91.350      187.81    
  331.48      500.50      660.00      773.66      1044.3      994.74      856.64      660.00      446.91      259.84    
  128.11      58.582      35.941      33.725      39.208      52.521      78.176      122.20      186.23      263.92    
  340.61      397.44      418.46      397.44      340.61      263.92      186.23      122.20      78.176      52.521    
  39.208      33.725      35.941      58.582      128.11      259.84      446.91      660.00      856.64      994.74    
  1203.6      1148.6      994.74      773.66      530.90      313.81      156.84      70.449      40.095      36.890    
  42.941      58.136      88.221      139.59      213.46      302.16      389.03      453.05      476.67      453.05    
  389.03      302.16      213.46      139.59      88.221      58.136      42.941      36.890      40.095      70.449    
  156.84      313.81      530.90      773.66      994.74      1148.6      1203.6      1148.6      994.74      773.66    
  530.90      313.81      156.84      70.449      40.095      36.890      42.941      58.136      88.221      139.59    
  213.46      302.16      389.03      453.05      476.67      453.05      389.03      302.16      213.46      139.59    
  88.221      58.136      42.941      36.890      40.095      70.449      156.84      313.81      530.90      773.66    
  994.74      1148.6      1148.6      1095.4      946.90      734.15      501.56      294.83      146.64      66.175    
  38.602      35.793      41.649      56.175      84.707      133.53      204.01      288.94      372.34      433.91    
  456.65      433.91      372.34      288.94      204.01      133.53      84.707      56.175      41.649      35.793    
  38.602      66.175      146.64      294.83      501.56      734.15      946.90      1095.4      994.74      946.90    
  813.92      625.11      421.41      243.70      119.70      55.210      34.744      32.749      38.056      50.820    
  75.149      116.93      177.90      252.12      325.59      380.11      400.30      380.11      325.59      252.12    
  177.90      116.93      75.149      50.820      38.056      32.749      34.744      55.210      119.70      243.70    
  421.41      625.11      813.92      946.90      773.66      734.15      625.11      472.54      311.60      175.70    
  85.387      42.027      29.800      28.407      32.907      43.379      62.092      94.029      141.32      199.81    
  258.44      302.32      318.64      302.32      258.44      199.81      141.32      94.029      62.092      43.379    
  32.907      28.407      29.800      42.027      85.387      175.70      311.60      472.54      625.11      734.15    
  530.90      501.56      421.41      311.60      199.57      109.64      54.410      31.022      24.550      23.592    
  27.147      35.235      48.558      70.276      102.68      143.51      185.11      216.60      228.37      216.60    
  185.11      143.51      102.68      70.276      48.558      35.235      27.147      23.592      24.550      31.022    
  54.410      109.64      199.57      311.60      421.41      501.56      313.81      294.83      243.70      175.70    
  109.64      60.553      33.814      23.697      19.636      19.041      21.636      27.420      36.646      50.133    
  69.640      94.442      120.12      139.81      147.22      139.81      120.12      94.442      69.640      50.133    
  36.646      27.420      21.636      19.041      19.636      23.697      33.814      60.553      109.64      175.70    
  243.70      294.83      156.84      146.64      119.70      85.387      54.410      33.814      23.687      18.386    
  15.644      15.238      16.942      20.747      26.818      35.226      46.028      59.212      72.842      83.368    
  87.350      83.368      72.842      59.212      46.028      35.226      26.818      20.747      16.942      15.238    
  15.644      18.386      23.687      33.814      54.410      85.387      119.70      146.64      70.449      66.175    
  55.210      42.027      31.022      23.697      18.386      14.755      12.814      12.379      13.300      15.564    
  19.249      24.373      30.690      37.560      44.142      49.088      50.944      49.088      44.142      37.560    
  30.690      24.373      19.249      15.564      13.300      12.379      12.814      14.755      18.386      23.697    
  31.022      42.027      55.210      66.175      40.095      38.602      34.744      29.800      24.550      19.636    
  15.644      12.814      11.125      10.452      10.696      11.830      13.863      16.761      20.347      24.218    
  27.756      30.260      31.166      30.260      27.756      24.218      20.347      16.761      13.863      11.830    
  10.696      10.452      11.125      12.814      15.644      19.636      24.550      29.800      34.744      38.602    
  36.890      35.793      32.749      28.407      23.592      19.041      15.238      12.379      10.452      9.3566    
  8.9963      9.3069      10.243      11.734      13.638      15.703      17.585      18.912      19.392      18.912    
  17.585      15.703      13.638      11.734      10.243      9.3069      8.9963      9.3566      10.452      12.379    
  15.238      19.041      23.592      28.407      32.749      35.793      42.941      41.649      38.056      32.907    
  27.147      21.636      16.942      13.300      10.696      8.9963      8.0466      7.7205      7.9162      8.5332    
  9.4447      10.482      11.442      12.121      12.366      12.121      11.442      10.482      9.4447      8.5332    
  7.9162      7.7205      8.0466      8.9963      10.696      13.300      16.942      21.636      27.147      32.907    
  38.056      41.649      58.136      56.175      50.820      43.379      35.235      27.420      20.747      15.564    
  11.830      9.3069      7.7205      6.8406      6.4922      6.5385      6.8555      7.3128      7.7722      8.1071    
  8.2293      8.1071      7.7722      7.3128      6.8555      6.5385      6.4922      6.8406      7.7205      9.3069    
  11.830      15.564      20.747      27.420      35.235      43.379      50.820      56.175      88.221      84.707    
  75.149      62.092      48.558      36.646      26.818      19.249      13.863      10.243      7.9162      6.4922    
  5.6910      5.3226      5.2510      5.3587      5.5329      5.6778      5.7327      5.6778      5.5329      5.3587    
  5.2510      5.3226      5.6910      6.4922      7.9162      10.243      13.863      19.249      26.818      36.646    
  48.558      62.092      75.149      84.707      139.59      133.53      116.93      94.029      70.276      50.133    
  35.226      24.373      16.761      11.734      8.5332      6.5385      5.3226      4.6180      4.2611      4.1323    
  4.1246      4.1521      4.1659      4.1521      4.1246      4.1323      4.2611      4.6180      5.3226      6.5385    
  8.5332      11.734      16.761      24.373      35.226      50.133      70.276      94.029      116.93      133.53    
  213.46      204.01      177.90      141.32      102.68      69.640      46.028      30.690      20.347      13.638    
  9.4447      6.8555      5.2510      4.2611      3.6811      3.3798      3.2464      3.1948      3.1811      3.1948    
  3.2464      3.3798      3.6811      4.2611      5.2510      6.8555      9.4447      13.638      20.347      30.690    
  46.028      69.640      102.68      141.32      177.90      204.01      302.16      288.94      252.12      199.81    
  143.51      94.442      59.212      37.560      24.218      15.703      10.482      7.3128      5.3587      4.1323    
  3.3798      2.9535      2.7339      2.6299      2.5982      2.6299      2.7339      2.9535      3.3798      4.1323    
  5.3587      7.3128      10.482      15.703      24.218      37.560      59.212      94.442      143.51      199.81    
  252.12      288.94      389.03      372.34      325.59      258.44      185.11      120.12      72.842      44.142    
  27.756      17.585      11.442      7.7722      5.5329      4.1246      3.2464      2.7339      2.4584      2.3219    
  2.2792      2.3219      2.4584      2.7339      3.2464      4.1246      5.5329      7.7722      11.442      17.585    
  27.756      44.142      72.842      120.12      185.11      258.44      325.59      372.34      453.05      433.91    
  380.11      302.32      216.60      139.81      83.368      49.088      30.260      18.912      12.121      8.1071    
  5.6778      4.1521      3.1948      2.6299      2.3219      2.1672      2.1185      2.1672      2.3219      2.6299    
  3.1948      4.1521      5.6778      8.1071      12.121      18.912      30.260      49.088      83.368      139.81    
  216.60      302.32      380.11      433.91      476.67      456.65      400.30      318.64      228.37      147.22    
  87.350      50.944      31.166      19.392      12.366      8.2293      5.7327      4.1659      3.1811      2.5982    
  2.2792      2.1185      2.0679      2.1185      2.2792      2.5982      3.1811      4.1659      5.7327      8.2293    
  12.366      19.392      31.166      50.944      87.350      147.22      228.37      318.64      400.30      456.65    
  453.05      433.91      380.11      302.32      216.60      139.81      83.368      49.088      30.260      18.912    
  12.121      8.1071      5.6778      4.1521      3.1948      2.6299      2.3219      2.1672      2.1185      2.1672    
  2.3219      2.6299      3.1948      4.1521      5.6778      8.1071      12.121      18.912      30.260      49.088    
  83.368      139.81      216.60      302.32      380.11      433.91      389.03      372.34      325.59      258.44    
  185.11      120.12      72.842      44.142      27.756      17.585      11.442      7.7722      5.5329      4.1246    
  3.2464      2.7339      2.4584      2.3219      2.2792      2.3219      2.4584      2.7339      3.2464      4.1246    
  5.5329      7.7722      11.442      17.585      27.756      44.142      72.842      120.12      185.11      258.44    
  325.59      372.34      302.16      288.94      252.12      199.81      143.51      94.442      59.212      37.560    
  24.218      15.703      10.482      7.3128      5.3587      4.1323      3.3798      2.9535      2.7339      2.6299    
  2.5982      2.6299      2.7339      2.9535      3.3798      4.1323      5.3587      7.3128      10.482      15.703    
  24.218      37.560      59.212      94.442      143.51      199.81      252.12      288.94      213.46      204.01    
  177.90      141.32      102.68      69.640      46.028      30.690      20.347      13.638      9.4447      6.8555    
  5.2510      4.2611      3.6811      3.3798      3.2464      3.1948      3.1811      3.1948      3.2464      3.3798    
  3.6811      4.2611      5.2510      6.8555      9.4447      13.638      20.347      30.690      46.028      69.640    
  102.68      141.32      177.90      204.01      139.59      133.53      116.93      94.029      70.276      50.133    
  35.226      24.373      16.761      11.734      8.5332      6.5385      5.3226      4.6180      4.2611      4.1323    
  4.1246      4.1521      4.1659      4.1521      4.1246      4.1323      4.2611      4.6180      5.3226      6.5385    
  8.5332      11.734      16.761      24.373      35.226      50.133      70.276      94.029      116.93      133.53    
  88.221      84.707      75.149      62.092      48.558      36.646      26.818      19.249      13.863      10.243    
  7.9162      6.4922      5.6910      5.3226      5.2510      5.3587      5.5329      5.6778      5.7327      5.6778    
  5.5329      5.3587      5.2510      5.3226      5.6910      6.4922      7.9162      10.243      13.863      19.249    
  26.818      36.646      48.558      62.092      75.149      84.707      58.136      56.175      50.820      43.379    
  35.235      27.420      20.747      15.564      11.830      9.3069      7.7205      6.8406      6.4922      6.5385    
  6.8555      7.3128      7.7722      8.1071      8.2293      8.1071      7.7722      7.3128      6.8555      6.5385    
  6.4922      6.8406      7.7205      9.3069      11.830      15.564      20.747      27.420      35.235      43.379    
  50.820      56.175      42.941      41.649      38.056      32.907      27.147      21.636      16.942      13.300    
  10.696      8.9963      8.0466      7.7205      7.9162      8.5332      9.4447      10.482      11.442      12.121    
  12.366      12.121      11.442      10.482      9.4447      8.5332      7.9162      7.7205      8.0466      8.9963    
  10.696      13.300      16.942      21.636      27.147      32.907      38.056      41.649      36.890      35.793    
  32.749      28.407      23.592      19.041      15.238      12.379      10.452      9.3566      8.9963      9.3069    
  10.243      11.734      13.638      15.703      17.585      18.912      19.392      18.912      17.585      15.703    
  13.638      11.734      10.243      9.3069      8.9963      9.3566      10.452      12.379      15.238      19.041    
  23.592      28.407      32.749      35.793      40.095      38.602      34.744      29.800      24.550      19.636    
  15.644      12.814      11.125      10.452      10.696      11.830      13.863      16.761      20.347      24.218    
  27.756      30.260      31.166      30.260      27.756      24.218      20.347      16.761      13.863      11.830    
  10.696      10.452      11.125      12.814      15.644      19.636      24.550      29.800      34.744      38.602    
  70.449      66.175      55.210      42.027      31.022      23.697      18.386      14.755      12.814      12.379    
  13.300      15.564      19.249      24.373      30.690      37.560      44.142      49.088      50.944      49.088    
  44.142      37.560      30.690      24.373      19.249      15.564      13.300      12.379      12.814      14.755    
  18.386      23.697      31.022      42.027      55.210      66.175      156.84      146.64      119.70      85.387    
  54.410      33.814      23.687      18.386      15.644      15.238      16.942      20.747      26.818      35.226    
  46.028      59.212      72.842      83.368      87.350      83.368      72.842      59.212      46.028      35.226    
  26.818      20.747      16.942      15.238      15.644      18.386      23.687      33.814      54.410      85.387    
  119.70      146.64      313.81      294.83      243.70      175.70      109.64      60.553      33.814      23.697    
  19.636      19.041      21.636      27.420      36.646      50.133      69.640      94.442      120.12      139.81    
  147.22      139.81      120.12      94.442      69.640      50.133      36.646      27.420      21.636      19.041    