unknown system                          
   1.00000000000000     
     3.950000    0.000000    0.000000
     0.000000    3.950000    0.000000
     0.000000    0.000000    3.950000
   Sr   Fe   O 
     1     1     3
Direct
  0.500000  0.500000  0.500000
  0.000000  0.000000  0.000000
  0.500000  0.000000  0.000000
  0.000000  0.500000  0.000000
  0.000000  0.000000  0.500000
 
   36   36   36
 0.12605033065E+04 0.12036345408E+04 0.10443444930E+04 0.81479415810E+03 0.56160400143E+03
 0.33381688535E+03 0.16770727521E+03 0.75063356212E+02 0.41708605265E+02 0.38031108127E+02
 0.44283222574E+02 0.60193324173E+02 0.91910808517E+02 0.14593017104E+03 0.22329877146E+03
 0.31586659585E+03 0.40627700398E+03 0.47279058737E+03 0.49730689464E+03 0.47279058737E+03
 0.40627700398E+03 0.31586659585E+03 0.22329877146E+03 0.14593017104E+03 0.91910808517E+02
 0.60193324173E+02 0.44283222574E+02 0.38031108127E+02 0.41708605265E+02 0.75063356212E+02
 0.16770727521E+03 0.33381688535E+03 0.56160400143E+03 0.81479415810E+03 0.10443444930E+04
 0.12036345408E+04 0.12036345408E+04 0.11486141145E+04 0.99474058565E+03 0.77366459214E+03
 0.53090042249E+03 0.31381122055E+03 0.15684199613E+03 0.70448877059E+02 0.40095106002E+02
 0.36890127152E+02 0.42941016505E+02 0.58135676564E+02 0.88221251373E+02 0.13959135977E+03
 0.21346156885E+03 0.30215985225E+03 0.38902735481E+03 0.45305064368E+03 0.47667042889E+03
 0.45305064368E+03 0.38902735481E+03 0.30215985225E+03 0.21346156885E+03 0.13959135977E+03
 0.88221251373E+02 0.58135676564E+02 0.42941016505E+02 0.36890127152E+02 0.40095106002E+02
 0.70448877059E+02 0.15684199613E+03 0.31381122055E+03 0.53090042249E+03 0.77366459214E+03
 0.99474058565E+03 0.11486141145E+04 0.10443444930E+04 0.99474058565E+03 0.85664484809E+03
 0.65999913412E+03 0.44691085499E+03 0.25984331086E+03 0.12810829355E+03 0.58582358554E+02
 0.35940661033E+02 0.33724876159E+02 0.39208471300E+02 0.52520916172E+02 0.78175896949E+02
 0.12220234291E+03 0.18623173769E+03 0.26391880863E+03 0.34061299169E+03 0.39743973725E+03
 0.41846008868E+03 0.39743973725E+03 0.34061299169E+03 0.26391880863E+03 0.18623173769E+03
 0.12220234291E+03 0.78175896949E+02 0.52520916172E+02 0.39208471300E+02 0.33724876159E+02
 0.35940661033E+02 0.58582358554E+02 0.12810829355E+03 0.25984331086E+03 0.44691085499E+03
 0.65999913412E+03 0.85664484809E+03 0.99474058565E+03 0.81479415810E+03 0.77366459214E+03
 0.65999913412E+03 0.50049520888E+03 0.33148247009E+03 0.18780766506E+03 0.91350388233E+02
 0.44253029979E+02 0.30691150252E+02 0.29213017687E+02 0.33860693046E+02 0.44736780855E+02
 0.64440879069E+02 0.98160228044E+02 0.14796855167E+03 0.20939169955E+03 0.27080992832E+03
 0.31670768471E+03 0.33375745113E+03 0.31670768471E+03 0.27080992832E+03 0.20939169955E+03
 0.14796855167E+03 0.98160228044E+02 0.64440879069E+02 0.44736780855E+02 0.33860693046E+02
 0.29213017687E+02 0.30691150252E+02 0.44253029979E+02 0.91350388233E+02 0.18780766506E+03
 0.33148247009E+03 0.50049520888E+03 0.65999913412E+03 0.77366459214E+03 0.56160400143E+03
 0.53090042249E+03 0.44691085499E+03 0.33148247009E+03 0.21314854086E+03 0.11742628706E+03
 0.57918804014E+02 0.32246283715E+02 0.25236418360E+02 0.24212804782E+02 0.27884279229E+02
 0.36269535950E+02 0.50206211032E+02 0.73147895547E+02 0.10739018363E+03 0.15043783064E+03
 0.19420335291E+03 0.22728293496E+03 0.23964105430E+03 0.22728293496E+03 0.19420335291E+03
 0.15043783064E+03 0.10739018363E+03 0.73147895547E+02 0.50206211032E+02 0.36269535950E+02
 0.27884279229E+02 0.24212804782E+02 0.25236418360E+02 0.32246283715E+02 0.57918804014E+02
 0.11742628706E+03 0.21314854086E+03 0.33148247009E+03 0.44691085499E+03 0.53090042249E+03
 0.33381688535E+03 0.31381122055E+03 0.25984331086E+03 0.18780766506E+03 0.11742628706E+03
 0.64627964704E+02 0.35453644553E+02 0.24379299980E+02 0.20137292168E+02 0.19494303674E+02
 0.22172333060E+02 0.28168318708E+02 0.37743508952E+02 0.51910833365E+02 0.72544765846E+02
 0.98792589305E+02 0.12593504252E+03 0.14671917665E+03 0.15453647440E+03 0.14671917665E+03
 0.12593504252E+03 0.98792589305E+02 0.72544765846E+02 0.51910833365E+02 0.37743508952E+02
 0.28168318708E+02 0.22172333060E+02 0.19494303674E+02 0.20137292168E+02 0.24379299980E+02
 0.35453644553E+02 0.64627964704E+02 0.11742628706E+03 0.18780766506E+03 0.25984331086E+03
 0.31381122055E+03 0.16770727521E+03 0.15684199613E+03 0.12810829355E+03 0.91350388233E+02
 0.57918804014E+02 0.35453644553E+02 0.24397524495E+02 0.18863507183E+02 0.15997532397E+02
 0.15559451090E+02 0.17315920761E+02 0.21256988772E+02 0.27551785765E+02 0.36278106868E+02
 0.47616041175E+02 0.61560980782E+02 0.76006610625E+02 0.87163769583E+02 0.91384218232E+02
 0.87163769583E+02 0.76006610625E+02 0.61560980782E+02 0.47616041175E+02 0.36278106868E+02
 0.27551785765E+02 0.21256988772E+02 0.17315920761E+02 0.15559451090E+02 0.15997532397E+02
 0.18863507183E+02 0.24397524495E+02 0.35453644553E+02 0.57918804014E+02 0.91350388233E+02
 0.12810829355E+03 0.15684199613E+03 0.75063356212E+02 0.70448877059E+02 0.58582358554E+02
 0.44253029979E+02 0.32246283715E+02 0.24379299980E+02 0.18863507183E+02 0.15087597857E+02
 0.13066358450E+02 0.12608249811E+02 0.13557294713E+02 0.15898685945E+02 0.19713858085E+02
 0.25023756230E+02 0.31574823833E+02 0.38729739215E+02 0.45650955744E+02 0.50875410755E+02
 0.52839885163E+02 0.50875410755E+02 0.45650955744E+02 0.38729739215E+02 0.31574823833E+02
 0.25023756230E+02 0.19713858085E+02 0.15898685945E+02 0.13557294713E+02 0.12608249811E+02
 0.13066358450E+02 0.15087597857E+02 0.18863507183E+02 0.24379299980E+02 0.32246283715E+02
 0.44253029979E+02 0.58582358554E+02 0.70448877059E+02 0.41708605265E+02 0.40095106002E+02
 0.35940661033E+02 0.30691150252E+02 0.25236418360E+02 0.20137292168E+02 0.15997532397E+02
 0.13066358450E+02 0.11319085246E+02 0.10624186230E+02 0.10877334154E+02 0.12048112748E+02
 0.14147645524E+02 0.17144306037E+02 0.20855882107E+02 0.24866273853E+02 0.28533770794E+02
 0.31129740808E+02 0.32069766619E+02 0.31129740808E+02 0.28533770794E+02 0.24866273853E+02
 0.20855882107E+02 0.17144306037E+02 0.14147645524E+02 0.12048112748E+02 0.10877334154E+02
 0.10624186230E+02 0.11319085246E+02 0.13066358450E+02 0.15997532397E+02 0.20137292168E+02
 0.25236418360E+02 0.30691150252E+02 0.35940661033E+02 0.40095106002E+02 0.38031108127E+02
 0.36890127152E+02 0.33724876159E+02 0.29213017687E+02 0.24212804782E+02 0.19494303674E+02
 0.15559451090E+02 0.12608249811E+02 0.10624186230E+02 0.95000467362E+01 0.91319810550E+01
 0.94533020308E+01 0.10417813590E+02 0.11954991093E+02 0.13918307440E+02 0.16050878996E+02
 0.17996080600E+02 0.19367961398E+02 0.19863647137E+02 0.19367961398E+02 0.17996080600E+02
 0.16050878996E+02 0.13918307440E+02 0.11954991093E+02 0.10417813590E+02 0.94533020308E+01
 0.91319810550E+01 0.95000467362E+01 0.10624186230E+02 0.12608249811E+02 0.15559451090E+02
 0.19494303674E+02 0.24212804782E+02 0.29213017687E+02 0.33724876159E+02 0.36890127152E+02
 0.44283222574E+02 0.42941016505E+02 0.39208471300E+02 0.33860693046E+02 0.27884279229E+02
 0.22172333060E+02 0.17315920761E+02 0.13557294713E+02 0.10877334154E+02 0.91319810550E+01
 0.81592705874E+01 0.78263278266E+01 0.80279186382E+01 0.86613280237E+01 0.95974735198E+01
 0.10663632050E+02 0.11650718688E+02 0.12349117687E+02 0.12601451606E+02 0.12349117687E+02
 0.11650718688E+02 0.10663632050E+02 0.95974735198E+01 0.86613280237E+01 0.80279186382E+01
 0.78263278266E+01 0.81592705874E+01 0.91319810550E+01 0.10877334154E+02 0.13557294713E+02
 0.17315920761E+02 0.22172333060E+02 0.27884279229E+02 0.33860693046E+02 0.39208471300E+02
 0.42941016505E+02 0.60193324173E+02 0.58135676564E+02 0.52520916172E+02 0.44736780855E+02
 0.36269535950E+02 0.28168318708E+02 0.21256988772E+02 0.15898685945E+02 0.12048112748E+02
 0.94533020308E+01 0.78263278266E+01 0.69256662489E+01 0.65691313129E+01 0.66156935167E+01
 0.69389009936E+01 0.74058957348E+01 0.78755453750E+01 0.82181986330E+01 0.83431854768E+01
 0.82181986330E+01 0.78755453750E+01 0.74058957348E+01 0.69389009936E+01 0.66156935167E+01
 0.65691313129E+01 0.69256662489E+01 0.78263278266E+01 0.94533020308E+01 0.12048112748E+02
 0.15898685945E+02 0.21256988772E+02 0.28168318708E+02 0.36269535950E+02 0.44736780855E+02
 0.52520916172E+02 0.58135676564E+02 0.91910808517E+02 0.88221251373E+02 0.78175896949E+02
 0.64440879069E+02 0.50206211032E+02 0.37743508952E+02 0.27551785765E+02 0.19713858085E+02
 0.14147645524E+02 0.10417813590E+02 0.80279186382E+01 0.65691313129E+01 0.57492116045E+01
 0.53711776423E+01 0.52956809696E+01 0.54034415263E+01 0.55796807476E+01 0.57266545656E+01
 0.57824131676E+01 0.57266545656E+01 0.55796807476E+01 0.54034415263E+01 0.52956809696E+01
 0.53711776423E+01 0.57492116045E+01 0.65691313129E+01 0.80279186382E+01 0.10417813590E+02
 0.14147645524E+02 0.19713858085E+02 0.27551785765E+02 0.37743508952E+02 0.50206211032E+02
 0.64440879069E+02 0.78175896949E+02 0.88221251373E+02 0.14593017104E+03 0.13959135977E+03
 0.12220234291E+03 0.98160228044E+02 0.73147895547E+02 0.51910833365E+02 0.36278106868E+02
 0.25023756230E+02 0.17144306037E+02 0.11954991093E+02 0.86613280237E+01 0.66156935167E+01
 0.53711776423E+01 0.46494950959E+01 0.42823457935E+01 0.41481206457E+01 0.41380435195E+01
 0.41645103994E+01 0.41780523386E+01 0.41645103994E+01 0.41380435195E+01 0.41481206457E+01
 0.42823457935E+01 0.46494950959E+01 0.53711776423E+01 0.66156935167E+01 0.86613280237E+01
 0.11954991093E+02 0.17144306037E+02 0.25023756230E+02 0.36278106868E+02 0.51910833365E+02
 0.73147895547E+02 0.98160228044E+02 0.12220234291E+03 0.13959135977E+03 0.22329877146E+03
 0.21346156885E+03 0.18623173769E+03 0.14796855167E+03 0.10739018363E+03 0.72544765846E+02
 0.47616041175E+02 0.31574823833E+02 0.20855882107E+02 0.13918307440E+02 0.95974735198E+01
 0.69389009936E+01 0.52956809696E+01 0.42823457935E+01 0.36873876298E+01 0.33770148960E+01
 0.32384310616E+01 0.31840387542E+01 0.31694539828E+01 0.31840387542E+01 0.32384310616E+01
 0.33770148960E+01 0.36873876298E+01 0.42823457935E+01 0.52956809696E+01 0.69389009936E+01
 0.95974735198E+01 0.13918307440E+02 0.20855882107E+02 0.31574823833E+02 0.47616041175E+02
 0.72544765846E+02 0.10739018363E+03 0.14796855167E+03 0.18623173769E+03 0.21346156885E+03
 0.31586659585E+03 0.30215985225E+03 0.26391880863E+03 0.20939169955E+03 0.15043783064E+03
 0.98792589305E+02 0.61560980782E+02 0.38729739215E+02 0.24866273853E+02 0.16050878996E+02
 0.10663632050E+02 0.74058957348E+01 0.54034415263E+01 0.41481206457E+01 0.33770148960E+01
 0.29390545107E+01 0.27126117614E+01 0.26047935243E+01 0.25718169440E+01 0.26047935243E+01
 0.27126117614E+01 0.29390545107E+01 0.33770148960E+01 0.41481206457E+01 0.54034415263E+01
 0.74058957348E+01 0.10663632050E+02 0.16050878996E+02 0.24866273853E+02 0.38729739215E+02
 0.61560980782E+02 0.98792589305E+02 0.15043783064E+03 0.20939169955E+03 0.26391880863E+03
 0.30215985225E+03 0.40627700398E+03 0.38902735481E+03 0.34061299169E+03 0.27080992832E+03
 0.19420335291E+03 0.12593504252E+03 0.76006610625E+02 0.45650955744E+02 0.28533770794E+02
 0.17996080600E+02 0.11650718688E+02 0.78755453750E+01 0.55796807476E+01 0.41380435195E+01
 0.32384310616E+01 0.27126117614E+01 0.24293668460E+01 0.22886125153E+01 0.22445169406E+01
 0.22886125153E+01 0.24293668460E+01 0.27126117614E+01 0.32384310616E+01 0.41380435195E+01
 0.55796807476E+01 0.78755453750E+01 0.11650718688E+02 0.17996080600E+02 0.28533770794E+02
 0.45650955744E+02 0.76006610625E+02 0.12593504252E+03 0.19420335291E+03 0.27080992832E+03
 0.34061299169E+03 0.38902735481E+03 0.47279058737E+03 0.45305064368E+03 0.39743973725E+03
 0.31670768471E+03 0.22728293496E+03 0.14671917665E+03 0.87163769583E+02 0.50875410755E+02
 0.31129740808E+02 0.19367961398E+02 0.12349117687E+02 0.82181986330E+01 0.57266545656E+01
 0.41645103994E+01 0.31840387542E+01 0.26047935243E+01 0.22886125153E+01 0.21296229992E+01
 0.20795182736E+01 0.21296229992E+01 0.22886125153E+01 0.26047935243E+01 0.31840387543E+01
 0.41645103994E+01 0.57266545656E+01 0.82181986330E+01 0.12349117687E+02 0.19367961398E+02
 0.31129740808E+02 0.50875410755E+02 0.87163769583E+02 0.14671917665E+03 0.22728293496E+03
 0.31670768471E+03 0.39743973725E+03 0.45305064368E+03 0.49730689464E+03 0.47667042889E+03
 0.41846008868E+03 0.33375745113E+03 0.23964105430E+03 0.15453647440E+03 0.91384218232E+02
 0.52839885163E+02 0.32069766619E+02 0.19863647137E+02 0.12601451606E+02 0.83431854768E+01
 0.57824131676E+01 0.41780523386E+01 0.31694539828E+01 0.25718169440E+01 0.22445169406E+01
 0.20795182736E+01 0.20274633441E+01 0.20795182736E+01 0.22445169406E+01 0.25718169440E+01
 0.31694539828E+01 0.41780523386E+01 0.57824131676E+01 0.83431854768E+01 0.12601451606E+02
 0.19863647137E+02 0.32069766619E+02 0.52839885163E+02 0.91384218232E+02 0.15453647440E+03
 0.23964105430E+03 0.33375745113E+03 0.41846008868E+03 0.47667042889E+03 0.47279058737E+03
 0.45305064368E+03 0.39743973725E+03 0.31670768471E+03 0.22728293496E+03 0.14671917665E+03
 0.87163769583E+02 0.50875410755E+02 0.31129740808E+02 0.19367961398E+02 0.12349117687E+02
 0.82181986330E+01 0.57266545656E+01 0.41645103994E+01 0.31840387542E+01 0.26047935243E+01
 0.22886125153E+01 0.21296229992E+01 0.20795182736E+01 0.21296229992E+01 0.22886125153E+01
 0.26047935243E+01 0.31840387543E+01 0.41645103994E+01 0.57266545656E+01 0.82181986330E+01
 0.12349117687E+02 0.19367961398E+02 0.31129740808E+02 0.50875410755E+02 0.87163769583E+02
 0.14671917665E+03 0.22728293496E+03 0.31670768471E+03 0.39743973725E+03 0.45305064368E+03
 0.40627700398E+03 0.38902735481E+03 0.34061299169E+03 0.27080992832E+03 0.19420335291E+03
 0.12593504252E+03 0.76006610625E+02 0.45650955744E+02 0.28533770794E+02 0.17996080600E+02
 0.11650718688E+02 0.78755453750E+01 0.55796807476E+01 0.41380435195E+01 0.32384310616E+01
 0.27126117614E+01 0.24293668460E+01 0.22886125153E+01 0.22445169406E+01 0.22886125153E+01
 0.24293668460E+01 0.27126117614E+01 0.32384310616E+01 0.41380435195E+01 0.55796807476E+01
 0.78755453750E+01 0.11650718688E+02 0.17996080600E+02 0.28533770794E+02 0.45650955744E+02
 0.76006610625E+02 0.12593504252E+03 0.19420335291E+03 0.27080992832E+03 0.34061299169E+03
 0.38902735481E+03 0.31586659585E+03 0.30215985225E+03 0.26391880863E+03 0.20939169955E+03
 0.15043783064E+03 0.98792589305E+02 0.61560980782E+02 0.38729739215E+02 0.24866273853E+02
 0.16050878996E+02 0.10663632050E+02 0.74058957348E+01 0.54034415263E+01 0.41481206457E+01
 0.33770148960E+01 0.29390545107E+01 0.27126117614E+01 0.26047935243E+01 0.25718169440E+01
 0.26047935243E+01 0.27126117614E+01 0.29390545107E+01 0.33770148960E+01 0.41481206457E+01
 0.54034415263E+01 0.74058957348E+01 0.10663632050E+02 0.16050878996E+02 0.24866273853E+02
 0.38729739215E+02 0.61560980782E+02 0.98792589305E+02 0.15043783064E+03 0.20939169955E+03
 0.26391880863E+03 0.30215985225E+03 0.22329877146E+03 0.21346156885E+03 0.18623173769E+03
 0.14796855167E+03 0.10739018363E+03 0.72544765846E+02 0.47616041175E+02 0.31574823833E+02
 0.20855882107E+02 0.13918307440E+02 0.95974735198E+01 0.69389009936E+01 0.52956809696E+01
 0.42823457935E+01 0.36873876298E+01 0.33770148960E+01 0.32384310616E+01 0.31840387543E+01
 0.31694539828E+01 0.31840387543E+01 0.32384310616E+01 0.33770148960E+01 0.36873876298E+01
 0.42823457935E+01 0.52956809696E+01 0.69389009936E+01 0.95974735198E+01 0.13918307440E+02
 0.20855882107E+02 0.31574823833E+02 0.47616041175E+02 0.72544765846E+02 0.10739018363E+03
 0.14796855167E+03 0.18623173769E+03 0.21346156885E+03 0.14593017104E+03 0.13959135977E+03
 0.12220234291E+03 0.98160228044E+02 0.73147895547E+02 0.51910833365E+02 0.36278106868E+02
 0.25023756230E+02 0.17144306037E+02 0.11954991093E+02 0.86613280237E+01 0.66156935167E+01
 0.53711776423E+01 0.46494950959E+01 0.42823457935E+01 0.41481206457E+01 0.41380435195E+01
 0.41645103994E+01 0.41780523386E+01 0.41645103994E+01 0.41380435195E+01 0.41481206457E+01
 0.42823457935E+01 0.46494950959E+01 0.53711776423E+01 0.66156935167E+01 0.86613280237E+01
 0.11954991093E+02 0.17144306037E+02 0.25023756230E+02 0.36278106868E+02 0.51910833365E+02
 0.73147895547E+02 0.98160228044E+02 0.12220234291E+03 0.13959135977E+03 0.91910808517E+02
 0.88221251373E+02 0.78175896949E+02 0.64440879069E+02 0.50206211032E+02 0.37743508952E+02
 0.27551785765E+02 0.19713858085E+02 0.14147645524E+02 0.10417813590E+02 0.80279186382E+01
 0.65691313129E+01 0.57492116045E+01 0.53711776423E+01 0.52956809696E+01 0.54034415263E+01
 0.55796807476E+01 0.57266545656E+01 0.57824131676E+01 0.57266545656E+01 0.55796807476E+01
 0.54034415263E+01 0.52956809696E+01 0.53711776423E+01 0.57492116045E+01 0.65691313129E+01
 0.80279186382E+01 0.10417813590E+02 0.14147645524E+02 0.19713858085E+02 0.27551785765E+02
 0.37743508952E+02 0.50206211032E+02 0.64440879069E+02 0.78175896949E+02 0.88221251373E+02
 0.60193324173E+02 0.58135676564E+02 0.52520916172E+02 0.44736780855E+02 0.36269535950E+02
 0.28168318708E+02 0.21256988772E+02 0.15898685945E+02 0.12048112748E+02 0.94533020308E+01
 0.78263278266E+01 0.69256662489E+01 0.65691313129E+01 0.66156935167E+01 0.69389009936E+01
 0.74058957348E+01 0.78755453750E+01 0.82181986330E+01 0.83431854768E+01 0.82181986330E+01
 0.78755453750E+01 0.74058957348E+01 0.69389009936E+01 0.66156935167E+01 0.65691313129E+01
 0.69256662489E+01 0.78263278266E+01 0.94533020308E+01 0.12048112748E+02 0.15898685945E+02
 0.21256988772E+02 0.28168318708E+02 0.36269535950E+02 0.44736780855E+02 0.52520916172E+02
 0.58135676564E+02 0.44283222574E+02 0.42941016505E+02 0.39208471300E+02 0.33860693046E+02
 0.27884279229E+02 0.22172333060E+02 0.17315920761E+02 0.13557294713E+02 0.10877334154E+02
 0.91319810550E+01 0.81592705874E+01 0.78263278266E+01 0.80279186382E+01 0.86613280237E+01
 0.95974735198E+01 0.10663632050E+02 0.11650718688E+02 0.12349117687E+02 0.12601451606E+02
 0.12349117687E+02 0.11650718688E+02 0.10663632050E+02 0.95974735198E+01 0.86613280237E+01
 0.80279186382E+01 0.78263278266E+01 0.81592705874E+01 0.91319810550E+01 0.10877334154E+02
 0.13557294713E+02 0.17315920761E+02 0.22172333060E+02 0.27884279229E+02 0.33860693046E+02
 0.39208471300E+02 0.42941016505E+02 0.38031108127E+02 0.36890127152E+02 0.33724876159E+02
 0.29213017687E+02 0.24212804782E+02 0.19494303674E+02 0.15559451090E+02 0.12608249811E+02
 0.10624186230E+02 0.95000467362E+01 0.91319810550E+01 0.94533020308E+01 0.10417813590E+02
 0.11954991093E+02 0.13918307440E+02 0.16050878996E+02 0.17996080600E+02 0.19367961398E+02
 0.19863647137E+02 0.19367961398E+02 0.17996080600E+02 0.16050878996E+02 0.13918307440E+02
 0.11954991093E+02 0.10417813590E+02 0.94533020308E+01 0.91319810550E+01 0.95000467362E+01
 0.10624186230E+02 0.12608249811E+02 0.15559451090E+02 0.19494303674E+02 0.24212804782E+02
 0.29213017687E+02 0.33724876159E+02 0.36890127152E+02 0.41708605265E+02 0.40095106002E+02
 0.35940661033E+02 0.30691150252E+02 0.25236418360E+02 0.20137292168E+02 0.15997532397E+02
 0.13066358450E+02 0.11319085246E+02 0.10624186230E+02 0.10877334154E+02 0.12048112748E+02
 0.14147645524E+02 0.17144306037E+02 0.20855882107E+02 0.24866273853E+02 0.28533770794E+02
 0.31129740808E+02 0.32069766619E+02 0.31129740808E+02 0.28533770794E+02 0.24866273853E+02
 0.20855882107E+02 0.17144306037E+02 0.14147645524E+02 0.12048112748E+02 0.10877334154E+02
 0.10624186230E+02 0.11319085246E+02 0.13066358450E+02 0.15997532397E+02 0.20137292168E+02
 0.25236418360E+02 0.30691150252E+02 0.35940661033E+02 0.40095106002E+02 0.75063356212E+02
 0.70448877059E+02 0.58582358554E+02 0.44253029979E+02 0.32246283715E+02 0.24379299980E+02
 0.18863507183E+02 0.15087597857E+02 0.13066358450E+02 0.12608249811E+02 0.13557294713E+02
 0.15898685945E+02 0.19713858085E+02 0.25023756230E+02 0.31574823833E+02 0.38729739215E+02
 0.45650955744E+02 0.50875410755E+02 0.52839885163E+02 0.50875410755E+02 0.45650955744E+02
 0.38729739215E+02 0.31574823833E+02 0.25023756230E+02 0.19713858085E+02 0.15898685945E+02
 0.13557294713E+02 0.12608249811E+02 0.13066358450E+02 0.15087597857E+02 0.18863507183E+02
 0.24379299980E+02 0.32246283715E+02 0.44253029979E+02 0.58582358554E+02 0.70448877059E+02
 0.16770727521E+03 0.15684199613E+03 0.12810829355E+03 0.91350388233E+02 0.57918804014E+02
 0.35453644553E+02 0.24397524495E+02 0.18863507183E+02 0.15997532397E+02 0.15559451090E+02
 0.17315920761E+02 0.21256988772E+02 0.27551785765E+02 0.36278106868E+02 0.47616041175E+02
 0.61560980782E+02 0.76006610625E+02 0.87163769583E+02 0.91384218232E+02 0.87163769583E+02
 0.76006610625E+02 0.61560980782E+02 0.47616041175E+02 0.36278106868E+02 0.27551785765E+02
 0.21256988772E+02 0.17315920761E+02 0.15559451090E+02 0.15997532397E+02 0.18863507183E+02
 0.24397524495E+02 0.35453644553E+02 0.57918804014E+02 0.91350388233E+02 0.12810829355E+03
 0.15684199613E+03 0.33381688535E+03 0.31381122055E+03 0.25984331086E+03 0.18780766506E+03
 0.11742628706E+03 0.64627964704E+02 0.35453644553E+02 0.24379299980E+02 0.20137292168E+02
 0.19494303674E+02 0.22172333060E+02 0.28168318708E+02 0.37743508952E+02 0.51910833365E+02
 0.72544765846E+02 0.98792589305E+02 0.12593504252E+03 0.14671917665E+03 0.15453647440E+03
 0.14671917665E+03 0.12593504252E+03 0.98792589305E+02 0.72544765846E+02 0.51910833365E+02
 0.37743508952E+02 0.28168318708E+02 0.22172333060E+02 0.19494303674E+02 0.20137292168E+02
 0.24379299980E+02 0.35453644553E+02 0.64627964704E+02 0.11742628706E+03 0.18780766506E+03
 0.25984331086E+03 0.31381122055E+03 0.56160400143E+03 0.53090042249E+03 0.44691085499E+03
 0.33148247009E+03 0.21314854086E+03 0.11742628706E+03 0.57918804014E+02 0.32246283715E+02
 0.25236418360E+02 0.24212804782E+02 0.27884279229E+02 0.36269535950E+02 0.50206211032E+02
 0.73147895547E+02 0.10739018363E+03 0.15043783064E+03 0.19420335291E+03 0.22728293496E+03
 0.23964105430E+03 0.22728293496E+03 0.19420335291E+03 0.15043783064E+03 0.10739018363E+03
 0.73147895547E+02 0.50206211032E+02 0.36269535950E+02 0.27884279229E+02 0.24212804782E+02
 0.25236418360E+02 0.32246283715E+02 0.57918804014E+02 0.11742628706E+03 0.21314854086E+03
 0.33148247009E+03 0.44691085499E+03 0.53090042249E+03 0.81479415810E+03 0.77366459214E+03
 0.65999913412E+03 0.50049520888E+03 0.33148247009E+03 0.18780766506E+03 0.91350388233E+02
 0.44253029979E+02 0.30691150252E+02 0.29213017687E+02 0.33860693046E+02 0.44736780855E+02
 0.64440879069E+02 0.98160228044E+02 0.14796855167E+03 0.20939169955E+03 0.27080992832E+03
 0.31670768471E+03 0.33375745113E+03 0.31670768471E+03 0.27080992832E+03 0.20939169955E+03
 0.14796855167E+03 0.98160228044E+02 0.64440879069E+02 0.44736780855E+02 0.33860693046E+02
 0.29213017687E+02 0.30691150252E+02 0.44253029979E+02 0.91350388233E+02 0.18780766506E+03
 0.33148247009E+03 0.50049520888E+03 0.65999913412E+03 0.77366459214E+03 0.10443444930E+04
 0.99474058565E+03 0.85664484809E+03 0.65999913412E+03 0.44691085499E+03 0.25984331086E+03
 0.12810829355E+03 0.58582358554E+02 0.35940661033E+02 0.33724876159E+02 0.39208471300E+02
 0.52520916172E+02 0.78175896949E+02 0.12220234291E+03 0.18623173769E+03 0.26391880863E+03
 0.34061299169E+03 0.39743973725E+03 0.41846008868E+03 0.39743973725E+03 0.34061299169E+03
 0.26391880863E+03 0.18623173769E+03 0.12220234291E+03 0.78175896949E+02 0.52520916172E+02
 0.39208471300E+02 0.33724876159E+02 0.35940661033E+02 0.58582358554E+02 0.12810829355E+03
 0.25984331086E+03 0.44691085499E+03 0.65999913412E+03 0.85664484809E+03 0.99474058565E+03
 0.12036345408E+04 0.11486141145E+04 0.99474058565E+03 0.77366459214E+03 0.53090042249E+03
 0.31381122055E+03 0.15684199613E+03 0.70448877059E+02 0.40095106002E+02 0.36890127152E+02
 0.42941016505E+02 0.58135676564E+02 0.88221251373E+02 0.13959135977E+03 0.21346156885E+03
 0.30215985225E+03 0.38902735481E+03 0.45305064368E+03 0.47667042889E+03 0.45305064368E+03
 0.38902735481E+03 0.30215985225E+03 0.21346156885E+03 0.13959135977E+03 0.88221251373E+02
 0.58135676564E+02 0.42941016505E+02 0.36890127152E+02 0.40095106002E+02 0.70448877059E+02
 0.15684199613E+03 0.31381122055E+03 0.53090042249E+03 0.77366459214E+03 0.99474058565E+03
 0.11486141145E+04 0.12036345408E+04 0.11486141145E+04 0.99474058565E+03 0.77366459214E+03
 0.53090042249E+03 0.31381122055E+03 0.15684199613E+03 0.70448877059E+02 0.40095106002E+02
 0.36890127152E+02 0.42941016505E+02 0.58135676564E+02 0.88221251373E+02 0.13959135977E+03
 0.21346156885E+03 0.30215985225E+03 0.38902735481E+03 0.45305064368E+03 0.47667042889E+03
 0.45305064368E+03 0.38902735481E+03 0.30215985225E+03 0.21346156885E+03 0.13959135977E+03
 0.88221251373E+02 0.58135676564E+02 0.42941016505E+02 0.36890127152E+02 0.40095106002E+02
 0.70448877059E+02 0.15684199613E+03 0.31381122055E+03 0.53090042249E+03 0.77366459214E+03
 0.99474058565E+03 0.11486141145E+04 0.11486141145E+04 0.10954257505E+04 0.94690329477E+03
 0.73415189971E+03 0.50155922880E+03 0.29482869031E+03 0.14663524413E+03 0.66174920004E+02
 0.38602399242E+02 0.35793028826E+02 0.41649234160E+02 0.56174758607E+02 0.84707487105E+02
 0.13353019212E+03 0.20401111655E+03 0.28893792431E+03 0.37233578546E+03 0.43391197702E+03
 0.45664922170E+03 0.43391197702E+03 0.37233578546E+03 0.28893792431E+03 0.20401111655E+03
 0.13353019212E+03 0.84707487105E+02 0.56174758607E+02 0.41649234160E+02 0.35793028826E+02
 0.38602399242E+02 0.66174920004E+02 0.14663524413E+03 0.29482869031E+03 0.50155922880E+03
 0.73415189971E+03 0.94690329477E+03 0.10954257505E+04 0.99474058565E+03 0.94690329477E+03
 0.81392192974E+03 0.62511083911E+03 0.42141310554E+03 0.24370374680E+03 0.11969739121E+03
 0.55209663215E+02 0.34744259151E+02 0.32748840838E+02 0.38056343946E+02 0.50820189577E+02
 0.75148567671E+02 0.11692671641E+03 0.17789707113E+03 0.25212083803E+03 0.32558609618E+03
 0.38011422154E+03 0.40030157189E+03 0.38011422154E+03 0.32558609618E+03 0.25212083803E+03
 0.17789707113E+03 0.11692671641E+03 0.75148567671E+02 0.50820189577E+02 0.38056343946E+02
 0.32748840838E+02 0.34744259151E+02 0.55209663215E+02 0.11969739121E+03 0.24370374680E+03
 0.42141310554E+03 0.62511083911E+03 0.81392192974E+03 0.94690329477E+03 0.77366459214E+03
 0.73415189971E+03 0.62511083911E+03 0.47253808693E+03 0.31159903984E+03 0.17569839133E+03
 0.85386758641E+02 0.42027025012E+02 0.29800287515E+02 0.28407344979E+02 0.32906654485E+02
 0.43378571182E+02 0.62092448199E+02 0.94029098152E+02 0.14131783723E+03 0.19980908590E+03
 0.25843829345E+03 0.30232354290E+03 0.31863897415E+03 0.30232354290E+03 0.25843829345E+03
 0.19980908590E+03 0.14131783723E+03 0.94029098152E+02 0.62092448199E+02 0.43378571182E+02
 0.32906654485E+02 0.28407344979E+02 0.29800287515E+02 0.42027025012E+02 0.85386758641E+02
 0.17569839133E+03 0.31159903984E+03 0.47253808693E+03 0.62511083911E+03 0.73415189971E+03
 0.53090042249E+03 0.50155922880E+03 0.42141310554E+03 0.31159903984E+03 0.19957313228E+03
 0.10964253071E+03 0.54410496222E+02 0.31022250136E+02 0.24549983858E+02 0.23591574224E+02
 0.27147331252E+02 0.35234721855E+02 0.48557642235E+02 0.70275772259E+02 0.10268318120E+03
 0.14351106534E+03 0.18510821340E+03 0.21659634796E+03 0.22836889763E+03 0.21659634796E+03
 0.18510821340E+03 0.14351106534E+03 0.10268318120E+03 0.70275772259E+02 0.48557642235E+02
 0.35234721855E+02 0.27147331252E+02 0.23591574224E+02 0.24549983858E+02 0.31022250136E+02
 0.54410496222E+02 0.10964253071E+03 0.19957313228E+03 0.31159903984E+03 0.42141310554E+03
 0.50155922880E+03 0.31381122055E+03 0.29482869031E+03 0.24370374680E+03 0.17569839133E+03
 0.10964253071E+03 0.60553112483E+02 0.33813662298E+02 0.23697351952E+02 0.19635968975E+02
 0.19040664932E+02 0.21636052585E+02 0.27420465772E+02 0.36646154823E+02 0.50133169404E+02
 0.69639740564E+02 0.94442446193E+02 0.12012117646E+03 0.13980732947E+03 0.14721641755E+03
 0.13980732947E+03 0.12012117646E+03 0.94442446193E+02 0.69639740564E+02 0.50133169404E+02
 0.36646154823E+02 0.27420465772E+02 0.21636052585E+02 0.19040664932E+02 0.19635968975E+02
 0.23697351952E+02 0.33813662298E+02 0.60553112483E+02 0.10964253071E+03 0.17569839133E+03
 0.24370374680E+03 0.29482869031E+03 0.15684199613E+03 0.14663524413E+03 0.11969739121E+03
 0.85386758641E+02 0.54410496222E+02 0.33813662298E+02 0.23687388622E+02 0.18385855534E+02
 0.15644158174E+02 0.15238010928E+02 0.16941718540E+02 0.20747230368E+02 0.26818014096E+02
 0.35225700495E+02 0.46027950197E+02 0.59212396072E+02 0.72842468063E+02 0.83367920629E+02
 0.87350049468E+02 0.83367920629E+02 0.72842468063E+02 0.59212396072E+02 0.46027950197E+02
 0.35225700495E+02 0.26818014096E+02 0.20747230368E+02 0.16941718540E+02 0.15238010928E+02
 0.15644158174E+02 0.18385855534E+02 0.23687388622E+02 0.33813662298E+02 0.54410496222E+02
 0.85386758641E+02 0.11969739121E+03 0.14663524413E+03 0.70448877059E+02 0.66174920004E+02
 0.55209663215E+02 0.42027025012E+02 0.31022250136E+02 0.23697351952E+02 0.18385855534E+02
 0.14754976088E+02 0.12814373209E+02 0.12378902483E+02 0.13299946785E+02 0.15564198680E+02
 0.19249208295E+02 0.24373130117E+02 0.30690082392E+02 0.37560039888E+02 0.44141999509E+02
 0.49087543179E+02 0.50944045695E+02 0.49087543179E+02 0.44141999509E+02 0.37560039888E+02
 0.30690082392E+02 0.24373130117E+02 0.19249208295E+02 0.15564198680E+02 0.13299946785E+02
 0.12378902483E+02 0.12814373209E+02 0.14754976088E+02 0.18385855534E+02 0.23697351952E+02
 0.31022250136E+02 0.42027025012E+02 0.55209663215E+02 0.66174920004E+02 0.40095106002E+02
 0.38602399242E+02 0.34744259151E+02 0.29800287515E+02 0.24549983858E+02 0.19635968975E+02
 0.15644158174E+02 0.12814373209E+02 0.11124782944E+02 0.10451565285E+02 0.10696351174E+02
 0.11830288614E+02 0.13862827837E+02 0.16761128454E+02 0.20347169167E+02 0.24218469350E+02
 0.27756464504E+02 0.30259756598E+02 0.31166051544E+02 0.30259756598E+02 0.27756464504E+02
 0.24218469350E+02 0.20347169167E+02 0.16761128454E+02 0.13862827837E+02 0.11830288614E+02
 0.10696351174E+02 0.10451565285E+02 0.11124782944E+02 0.12814373209E+02 0.15644158174E+02
 0.19635968975E+02 0.24549983858E+02 0.29800287515E+02 0.34744259151E+02 0.38602399242E+02
 0.36890127152E+02 0.35793028826E+02 0.32748840838E+02 0.28407344979E+02 0.23591574224E+02