    5    5   99    2
  0.1232598E+02  0.3950000E-09  0.3950000E-09  0.3950000E-09  0.5000000E-15
  1.000000000000000E-004
  CAR 
 unknown system                          
     42     10     28
 
  0.8333333E-01  0.8333333E-01  0.8333333E-01  0.3703704E-01
    1      -54.862644    -50.494497   1.000000   1.000000
    2      -54.862644    -50.494497   1.000000   1.000000
    3      -54.862413    -50.494298   1.000000   1.000000
    4      -30.312216    -30.306798   1.000000   1.000000
    5      -15.392439    -15.226589   1.000000   1.000000
    6      -14.254360    -13.869491   1.000000   1.000000
    7      -14.254360    -13.869491   1.000000   1.000000
    8      -12.334009    -12.317183   1.000000   1.000000
    9      -12.334009    -12.317183   1.000000   1.000000
   10      -12.280589    -12.270089   1.000000   1.000000
   11       -4.548061     -1.560763   1.000000   1.000000
   12       -4.548061     -1.358732   1.000000   1.000000
   13       -4.542377     -1.358732   1.000000   1.000000
   14       -3.415915      1.042711   1.000000   1.000000
   15       -3.415915      1.042712   1.000000   1.000000
   16       -1.691940      1.361507   1.000000   1.000000
   17       -1.049436      1.447449   1.000000   1.000000
   18       -1.049435      1.693377   1.000000   1.000000
   19        1.012011      1.693377   1.000000   1.000000
   20        1.012011      3.714879   1.000000   0.000000
   21        1.216952      3.757810   1.000000   0.000000
   22        1.353504      3.757827   1.000000   0.000000
   23        1.778106      4.261133   1.000119   0.000000
   24        1.778107      4.261133   1.034288   0.000000
   25        8.202514      8.254985   0.000000   0.000000
   26        8.202568      8.255019   0.000000   0.000000
   27        8.524302      8.719389   0.000000   0.000000
   28       10.404436     10.655846   0.000000   0.000000
 
  0.2500000E+00  0.8333333E-01  0.8333333E-01  0.1111111E+00
    1      -54.862849    -50.495070   1.000000   1.000000
    2      -54.862463    -50.494325   1.000000   1.000000
    3      -54.862307    -50.494220   1.000000   1.000000
    4      -30.303807    -30.298455   1.000000   1.000000
    5      -15.365403    -15.197774   1.000000   1.000000
    6      -14.321934    -14.042065   1.000000   1.000000
    7      -14.228754    -13.839170   1.000000   1.000000
    8      -12.331371    -12.317497   1.000000   1.000000
    9      -12.291678    -12.274345   1.000000   1.000000
   10      -12.108623    -12.071986   1.000000   1.000000
   11       -4.658746     -1.933370   1.000000   1.000000
   12       -4.645789     -1.344945   1.000000   1.000000
   13       -4.546145     -1.315923   1.000000   1.000000
   14       -4.500502      0.347511   1.000000   1.000000
   15       -3.412382      0.450687   1.000000   1.000000
   16       -1.705607      0.958627   1.000000   1.000000
   17       -0.977841      1.329480   1.000000   1.000000
   18       -0.230256      1.386020   1.000000   1.000000
   19        0.680293      1.523232   1.000000   1.000000
   20        0.931371      3.765220   1.000000   0.000000
   21        1.005016      4.182659   1.000000   0.000000
   22        1.232743      4.259325   1.000000   0.000000
   23        1.670282      4.339339   1.001240   0.000000
   24        1.892603      5.078758   0.994063   0.000000
   25        8.863379      8.940501   0.000000   0.000000
   26        8.923348      8.983758   0.000000   0.000000
   27        9.534263      9.711965   0.000000   0.000000
   28       10.536867     10.710300   0.000000   0.000000
 
  0.4166667E+00  0.8333333E-01  0.8333333E-01  0.1111111E+00
    1      -54.863307    -50.495823   1.000000   1.000000
    2      -54.862420    -50.494267   1.000000   1.000000
    3      -54.862276    -50.494161   1.000000   1.000000
    4      -30.295375    -30.290088   1.000000   1.000000
    5      -15.383615    -15.197819   1.000000   1.000000
    6      -14.303691    -14.134448   1.000000   1.000000
    7      -14.204130    -13.809312   1.000000   1.000000
    8      -12.329120    -12.318481   1.000000   1.000000
    9      -12.259953    -12.247003   1.000000   1.000000
   10      -11.957535    -11.911432   1.000000   1.000000
   11       -5.291884     -2.263054   1.000000   1.000000
   12       -4.759323     -1.310817   1.000000   1.000000
   13       -4.736504     -1.263294   1.000000   1.000000
   14       -4.546986     -0.319482   1.000000   1.000000
   15       -3.411143      0.051121   1.000000   1.000000
   16       -1.621489      0.783530   1.000000   1.000000
   17       -0.936301      1.087273   1.000000   1.000000
   18       -0.150516      1.138317   1.000000   1.000000
   19        0.442712      1.389208   1.000000   1.000000
   20        0.841394      3.790753   1.000000   0.000000
   21        1.193524      4.236320   1.000000   0.000000
   22        1.294746      4.700887   1.000000   0.000000
   23        1.482742      4.719069   1.001670   0.000000
   24        1.839231      5.609751   0.921928   0.000000
   25        9.596484      9.684285   0.000000   0.000000
   26        9.748890      9.817086   0.000000   0.000000
   27       10.657104     10.734221   0.000000   0.000000
   28       11.045747     11.198045   0.000000   0.000000
 
  0.2500000E+00  0.2500000E+00  0.8333333E-01  0.1111111E+00
    1      -54.862888    -50.495090   1.000000   1.000000
    2      -54.862738    -50.494966   1.000000   1.000000
    3      -54.862333    -50.494190   1.000000   1.000000
    4      -30.295871    -30.290575   1.000000   1.000000
    5      -15.249587    -15.088006   1.000000   1.000000
    6      -14.400351    -14.150346   1.000000   1.000000
    7      -14.229426    -13.891246   1.000000   1.000000
    8      -12.319584    -12.305944   1.000000   1.000000
    9      -12.219089    -12.175151   1.000000   1.000000
   10      -12.083746    -12.061212   1.000000   1.000000
   11       -4.796937     -2.235871   1.000000   1.000000
   12       -4.724116     -1.424210   1.000000   1.000000
   13       -4.664654     -1.238857   1.000000   1.000000
   14       -4.653038     -0.477705   1.000000   1.000000
   15       -4.172282      0.325586   1.000000   1.000000
   16       -1.823313      0.465693   1.000000   1.000000
   17       -0.505303      1.226583   1.000000   1.000000
   18        0.288783      1.279376   1.000000   1.000000
   19        0.352527      1.750393   1.000000   1.004190
   20        0.615355      4.213909   1.000000   0.000000
   21        0.923329      4.318254   1.000000   0.000000
   22        1.434863      4.434870   1.000000   0.000000
   23        1.602443      4.640251   1.021289   0.000000
   24        2.395789      5.672656   0.250214   0.000000
   25        9.285605      9.386152   0.000000   0.000000
   26        9.638102      9.703261   0.000000   0.000000
   27        9.952838     10.089759   0.000000   0.000000
   28       11.021024     11.120476   0.000000   0.000000
 
  0.4166667E+00  0.2500000E+00  0.8333333E-01  0.2222222E+00
    1      -54.863389    -50.495865   1.000000   1.000000
    2      -54.862861    -50.495027   1.000000   1.000000
    3      -54.862250    -50.494112   1.000000   1.000000
    4      -30.287923    -30.282680   1.000000   1.000000
    5      -15.164178    -14.985477   1.000000   1.000000
    6      -14.423812    -14.261336   1.000000   1.000000
    7      -14.228921    -13.899550   1.000000   1.000000
    8      -12.325553    -12.314652   1.000000   1.000000
    9      -12.168855    -12.144252   1.000000   1.000000
   10      -12.035060    -11.997273   1.000000   1.000000
   11       -5.336419     -2.536575   1.000000   1.000000
   12       -4.927430     -1.478145   1.000000   1.000000
   13       -4.761341     -1.131650   1.000000   1.000000
   14       -4.670465     -1.062229   1.000000   1.000000
   15       -4.338272     -0.060091   1.000000   1.000000
   16       -1.732117      0.448368   1.000000   1.000000
   17       -0.298055      0.967627   1.000000   1.000000
   18       -0.102230      1.185166   1.000000   1.000000
   19        0.460154      1.847987   1.000000   1.042712
   20        0.616924      4.276224   1.000000   0.000000
   21        1.082693      4.651301   1.000000   0.000000
   22        1.395505      4.714135   1.000000   0.000000
   23        1.682773      4.770324   1.032036   0.000000
   24        2.702546      6.262240  -0.003116   0.000000
   25        9.922050     10.017570   0.000000   0.000000
   26       10.379485     10.450751   0.000000   0.000000
   27       10.635657     10.695082   0.000000   0.000000
   28       11.236393     11.241936   0.000000   0.000000
 
  0.4166667E+00  0.4166667E+00  0.8333333E-01  0.1111111E+00
    1      -54.863358    -50.495833   1.000000   1.000000
    2      -54.863226    -50.495725   1.000000   1.000000
    3      -54.862303    -50.494113   1.000000   1.000000
    4      -30.280441    -30.275246   1.000000   1.000000
    5      -14.851521    -14.666357   1.000000   1.000000
    6      -14.529638    -14.382571   1.000000   1.000000
    7      -14.357270    -14.101450   1.000000   1.000000
    8      -12.294650    -12.287250   1.000000   1.000000
    9      -12.117581    -12.083482   1.000000   1.000000
   10      -12.087083    -12.059170   1.000000   1.000000
   11       -5.512703     -2.870956   1.000000   1.000000
   12       -5.091543     -1.612557   1.000000   1.000000
   13       -4.953084     -1.578165   1.000000   1.000000
   14       -4.782696     -0.864636   1.000000   1.000000
   15       -4.779014     -0.144448   1.000000   1.000000
   16       -1.655158     -0.020927   1.000000   1.000000
   17       -0.263138      1.029306   1.000000   1.000000
   18        0.191251      1.097006   1.000000   1.000000
   19        0.565133      2.271358   1.000000   0.593467
   20        0.584185      4.676350   1.000000   0.000000
   21        1.018046      4.716203   1.000000   0.000000
   22        1.157345      4.799050   1.000000   0.000000
   23        2.026503      4.913273   1.047209   0.000000
   24        3.390095      6.976225   0.000000   0.000000
   25       10.171854     10.216717   0.000000   0.000000
   26       10.445763     10.530544   0.000000   0.000000
   27       11.255090     11.361852   0.000000   0.000000
   28       11.320226     11.478362   0.000000   0.000000
 
  0.2500000E+00  0.2500000E+00  0.2500000E+00  0.3703704E-01
    1      -54.862903    -50.495069   1.000000   1.000000
    2      -54.862903    -50.495069   1.000000   1.000000
    3      -54.862859    -50.495021   1.000000   1.000000
    4      -30.288326    -30.283088   1.000000   1.000000
    5      -15.103664    -14.953674   1.000000   1.000000
    6      -14.317019    -14.054837   1.000000   1.000000
    7      -14.317019    -14.054838   1.000000   1.000000
    8      -12.320010    -12.287283   1.000000   1.000000
    9      -12.320010    -12.287283   1.000000   1.000000
   10      -12.048103    -12.027776   1.000000   1.000000
   11       -4.833111     -2.496643   1.000000   1.000000
   12       -4.769561     -1.387547   1.000000   1.000000
   13       -4.769561     -1.387547   1.000000   1.000000
   14       -4.715210     -0.571473   1.000000   1.000000
   15       -4.715210     -0.249298   1.000000   1.000000
   16       -2.604484     -0.249296   1.000000   1.000000
   17        0.094770      1.536915   1.000000   1.000005
   18        0.414443      1.536917   1.000000   1.000007
   19        0.414444      1.889141   1.000000   1.023632
   20        0.774854      4.440883   1.000000   0.000000
   21        0.774851      4.518955   1.000000   0.000000
   22        1.651704      4.518996   1.000000   0.000000
   23        2.335060      5.654591   0.693717   0.000000
   24        2.335062      5.654594   0.127073   0.000000
   25        9.758559      9.860102   0.000000   0.000000
   26        9.763137      9.863566   0.000000   0.000000
   27        9.911960     10.013734   0.000000   0.000000
   28       11.140355     11.240326   0.000000   0.000000
 
  0.4166667E+00  0.2500000E+00  0.2500000E+00  0.1111111E+00
    1      -54.863251    -50.495754   1.000000   1.000000
    2      -54.862863    -50.495017   1.000000   1.000000
    3      -54.862806    -50.494942   1.000000   1.000000
    4      -30.280763    -30.275581   1.000000   1.000000
    5      -14.955957    -14.791094   1.000000   1.000000
    6      -14.397243    -14.234262   1.000000   1.000000
    7      -14.222620    -13.943321   1.000000   1.000000
    8      -12.430937    -12.414091   1.000000   1.000000
    9      -12.225219    -12.193072   1.000000   1.000000
   10      -12.105561    -12.080933   1.000000   1.000000
   11       -5.361995     -2.793773   1.000000   1.000000
   12       -4.944712     -1.478130   1.000000   1.000000
   13       -4.852474     -1.339269   1.000000   1.000000
   14       -4.776263     -1.052649   1.000000   1.000000
   15       -4.721961     -0.602124   1.000000   1.000000
   16       -2.791166     -0.232510   1.000000   1.000000
   17       -0.039401      1.541232   1.000000   1.000468
   18        0.370685      1.645728   1.000000   1.000502
   19        0.461336      1.975791   1.000000   1.082737
   20        0.822556      4.533620   1.000000   0.000000
   21        1.416986      4.783328   1.000000   0.000000
   22        1.801603      4.816867   1.000000   0.000000
   23        2.228396      5.619978   0.736181   0.000000
   24        2.814669      6.412032  -0.016988   0.000000
   25       10.093238     10.185958   0.000000   0.000000
   26       10.249515     10.333540   0.000000   0.000000
   27       10.255456     10.372288   0.000000   0.000000
   28       10.863495     10.927613   0.000000   0.000000
 
  0.4166667E+00  0.4166667E+00  0.2500000E+00  0.1111111E+00
    1      -54.863251    -50.495741   1.000000   1.000000
    2      -54.863200    -50.495687   1.000000   1.000000
    3      -54.862793    -50.494926   1.000000   1.000000
    4      -30.273573    -30.268447   1.000000   1.000000
    5      -14.661926    -14.499561   1.000000   1.000000
    6      -14.397755    -14.242426   1.000000   1.000000
    7      -14.273984    -14.052818   1.000000   1.000000
    8      -12.448126    -12.433020   1.000000   1.000000
    9      -12.310511    -12.280622   1.000000   1.000000
   10      -12.220706    -12.195863   1.000000   1.000000
   11       -5.510805     -3.136467   1.000000   1.000000
   12       -5.147630     -1.602007   1.000000   1.000000
   13       -5.025541     -1.325527   1.000000   1.000000
   14       -4.871495     -1.273807   1.000000   1.000000
   15       -4.867296     -0.615494   1.000000   1.000000
   16       -3.128459     -0.606691   1.000000   1.000000
   17        0.009910      1.744289   1.000000   1.019556
   18        0.411995      1.789619   1.000000   1.019663
   19        0.432864      2.305875   1.000000   0.385656
   20        1.430616      4.833001   1.000000   0.000000
   21        1.568214      4.851848   1.000000   0.000000
   22        2.063691      4.970371   1.000000   0.000000
   23        2.311721      5.937485   0.285832   0.000000
   24        3.384028      6.969028   0.000000   0.000000
   25        9.816323      9.897570   0.000000   0.000000
   26       10.144644     10.248064   0.000000   0.000000
   27       10.204749     10.319822   0.000000   0.000000
   28       11.043604     11.108535   0.000000   0.000000
 
  0.4166667E+00  0.4166667E+00  0.4166667E+00  0.3703704E-01
    1      -54.863110    -50.495627   1.000000   1.000000
    2      -54.863110    -50.495627   1.000000   1.000000
    3      -54.862934    -50.495472   1.000000   1.000000
    4      -30.266673    -30.261616   1.000000   1.000000
    5      -14.404014    -14.255092   1.000000   1.000000
    6      -14.238240    -14.069118   1.000000   1.000000
    7      -14.238240    -14.069118   1.000000   1.000000
    8      -12.530051    -12.509949   1.000000   1.000000
    9      -12.530051    -12.509949   1.000000   1.000000
   10      -12.423519    -12.400762   1.000000   1.000000
   11       -5.508846     -3.500137   1.000000   1.000000
   12       -5.508846     -1.590007   1.000000   1.000000
   13       -4.977548     -1.590007   1.000000   1.000000
   14       -4.945801     -1.016392   1.000000   1.000000
   15       -4.945801     -0.880926   1.000000   1.000000
   16       -3.762954     -0.880926   1.000000   1.000000
   17        0.279001      2.256460   1.000000   0.802458
   18        0.396703      2.256461   1.000000   0.800783
   19        0.396703      2.373347   1.000000   0.072770
   20        2.002803      5.021735   1.000000   0.000000
   21        2.002803      5.037609   1.000000   0.000000
   22        2.127418      5.037612   1.000000   0.000000
   23        3.368410      6.955642  -0.031269   0.000000
   24        3.368410      6.955644   0.000000   0.000000
   25        9.397854      9.493269   0.000000   0.000000
   26        9.489822      9.579403   0.000000   0.000000
   27        9.489926      9.579582   0.000000   0.000000
   28       11.805878     11.825140   0.000000   0.000000
