Automatically generated mesh
      10
Reciprocal lattice
    0.08333333333333    0.08333333333333    0.08333333333333             8
    0.25000000000000    0.08333333333333    0.08333333333333            24
    0.41666666666667    0.08333333333333    0.08333333333333            24
    0.25000000000000    0.25000000000000    0.08333333333333            24
    0.41666666666667    0.25000000000000    0.08333333333333            48
    0.41666666666667    0.41666666666667    0.08333333333333            24
    0.25000000000000    0.25000000000000    0.25000000000000             8
    0.41666666666667    0.25000000000000    0.25000000000000            24
    0.41666666666667    0.41666666666667    0.25000000000000            24
    0.41666666666667    0.41666666666667    0.41666666666667             8
Tetrahedra
        88    0.00077160493827
        24         1         2         2         4
        18         2         2         4         4
        12         2         4         4         7
        12         2         3         4         5
        24         2         4         4         5
        12         4         4         5         7
        24         3         4         5         5
        24         4         5         5         8
        24         4         5         7         8
        30         3         3         5         5
        36         3         5         5         5
        12         5         5         5         8
         6         5         5         8         8
        18         1         1         2         2
        24         1         2         2         2
        12         2         2         2         4
        12         4         5         6         7
        12         5         6         7         8
        12         6         7         8         9
        24         5         5         6         8
        12         5         6         6         8
        12         6         6         8         9
        12         5         6         8         8
        12         6         8         8         9
        12         6         8         9         9
        12         5         6         8         9
        12         5         7         8         8
        24         5         8         8         9
        12         2         3         4         7
        12         3         4         5         7
        12         3         5         7         8
        12         2         2         3         4
        12         2         3         3         4
        12         3         3         4         5
        12         2         3         4         4
        12         3         4         4         5
        12         6         6         6         9
        12         6         6         9         9
        12         6         9         9         9
        12         5         5         6         9
        12         5         6         6         9
        12         5         6         9         9
        12         5         5         8         9
        12         5         8         9         9
        12         3         3         5         8
        12         3         5         5         8
        12         3         5         8         8
        24         3         3         3         5
        12         4         5         6         9
        12         4         5         8         9
        12         4         7         8         9
        12         2         3         5         8
        12         2         4         5         8
        12         2         4         7         8
        12         2         3         3         5
        12         2         2         3         5
        12         2         2         4         5
        12         2         3         5         5
        12         2         4         5         5
        12         1         2         4         7
        12         1         1         2         4
        12         1         2         4         4
        12         1         1         1         2
        12         7         8         8         9
        18         8         8         9         9
        24         8         9         9        10
        12         8         9         9         9
        24         9         9         9        10
        18         9         9        10        10
         6         4         4         5         5
        12         4         5         5         5
        36         5         5         5         6
        30         5         5         6         6
        12         9        10        10        10
        12         8         8         9        10
        12         8         9        10        10
        24         5         6         6         6
        12         7         8         9        10
        12         4         5         5         6
        12         4         4         5         6
        12         4         5         6         6
        12         2         2         2         3
        12         2         2         3         3
        12         2         3         3         3
         6        10        10        10        10
        18         6         6         6         6
        18         3         3         3         3
         6         1         1         1         1
