       N       E                     dE             d eps       ncg     rms          rms(c)
DAV:   1     0.318646510733E+03    0.31865E+03   -0.17062E+04  1224   0.115E+03
DAV:   2    -0.195527763266E+02   -0.33820E+03   -0.32857E+03  1152   0.394E+02
DAV:   3    -0.370805892716E+02   -0.17528E+02   -0.17352E+02  1532   0.947E+01
DAV:   4    -0.375868170113E+02   -0.50623E+00   -0.50324E+00  1708   0.120E+01
DAV:   5    -0.375980105396E+02   -0.11194E-01   -0.11162E-01  1504   0.130E+00    0.271E+01
RMM:   6    -0.437302392710E+02   -0.61322E+01   -0.12740E+02  1237   0.890E+01    0.427E+01
RMM:   7    -0.322192237554E+02    0.11511E+02   -0.32489E+01  1149   0.402E+01    0.175E+01
RMM:   8    -0.321975257936E+02    0.21698E-01   -0.61190E-01  1203   0.591E+00    0.118E+01
RMM:   9    -0.315263616217E+02    0.67116E+00   -0.21581E+00  1157   0.101E+01    0.407E+00
RMM:  10    -0.314267269986E+02    0.99635E-01   -0.34904E-01  1172   0.400E+00    0.117E+00
RMM:  11    -0.314499729137E+02   -0.23246E-01   -0.84095E-02  1141   0.194E+00    0.912E-01
RMM:  12    -0.314514173059E+02   -0.14444E-02   -0.79537E-03   990   0.616E-01    0.627E-01
RMM:  13    -0.314523372115E+02   -0.91991E-03   -0.95370E-03   983   0.630E-01
   1 F= -.31452337E+02 E0= -.31452337E+02  d E =-.314523E+02  mag=     4.2656
