<?xml version="1.0" encoding="ISO-8859-1"?>
<modeling>
 <generator>
  <i name="program" type="string">vasp </i>
  <i name="version" type="string">5.4.1  </i>
  <i name="subversion" type="string">24Jun15 (build Jan 06 2016 13:10:00) complex                          parallel </i>
  <i name="platform" type="string">IFC91_ompi </i>
  <i name="date" type="string">2016 02 25 </i>
  <i name="time" type="string">14:45:37 </i>
 </generator>
 <incar>
  <i type="string" name="PREC">normal</i>
  <i type="string" name="ALGO"> Fast</i>
  <i type="int" name="ISPIN">     2</i>
  <i type="int" name="NELM">   100</i>
  <i type="int" name="IBRION">     1</i>
  <i name="EDIFF">      0.00100000</i>
  <i name="EDIFFG">     -0.01000000</i>
  <i type="int" name="NSW">    99</i>
  <i type="int" name="ISIF">     0</i>
  <i name="ENCUT">    300.00000000</i>
  <i type="string" name="LREAL">Auto</i>
  <i type="int" name="ISMEAR">    -5</i>
  <i name="SIGMA">      0.05000000</i>
  <i type="int" name="LMAXMIX">     4</i>
  <i type="logical" name="LWAVE"> F  </i>
  <v type="int" name="KPOINT_BSE">    -1     0     0     0</v>
  <i type="int" name="NELM">   100</i>
  <i type="logical" name="LDAU"> T  </i>
  <v type="int" name="LDAUTYPE">     2</v>
  <v type="int" name="LDAUL">     0     2     0</v>
  <v name="LDAUU">      0.00000000      5.30000000      0.00000000</v>
  <v name="LDAUJ">      0.00000000      0.00000000      0.00000000</v>
  <i type="int" name="LDAUPRINT">     1</i>
 </incar>
 <kpoints>
  <generation param="Monkhorst-Pack">
   <v type="int" name="divisions">       6        6        6 </v>
   <v name="usershift">      0.00000000       0.00000000       0.00000000 </v>
   <v name="genvec1">      0.16666667       0.00000000       0.00000000 </v>
   <v name="genvec2">      0.00000000       0.16666667       0.00000000 </v>
   <v name="genvec3">      0.00000000       0.00000000       0.16666667 </v>
   <v name="shift">      0.50000000       0.50000000       0.50000000 </v>
  </generation>
  <varray name="kpointlist" >
   <v>       0.08333333       0.08333333       0.08333333 </v>
   <v>       0.25000000       0.08333333       0.08333333 </v>
   <v>       0.41666667       0.08333333       0.08333333 </v>
   <v>       0.25000000       0.25000000       0.08333333 </v>
   <v>       0.41666667       0.25000000       0.08333333 </v>
   <v>       0.41666667       0.41666667       0.08333333 </v>
   <v>       0.25000000       0.25000000       0.25000000 </v>
   <v>       0.41666667       0.25000000       0.25000000 </v>
   <v>       0.41666667       0.41666667       0.25000000 </v>
   <v>       0.41666667       0.41666667       0.41666667 </v>
  </varray>
  <varray name="weights" >
   <v>       0.03703704 </v>
   <v>       0.11111111 </v>
   <v>       0.11111111 </v>
   <v>       0.11111111 </v>
   <v>       0.22222222 </v>
   <v>       0.11111111 </v>
   <v>       0.03703704 </v>
   <v>       0.11111111 </v>
   <v>       0.11111111 </v>
   <v>       0.03703704 </v>
  </varray>
  <varray name="tetrahedronlist"  type="int" >
   <v type="int" >       24        1        2        2        4 </v>
   <v type="int" >       18        2        2        4        4 </v>
   <v type="int" >       12        2        4        4        7 </v>
   <v type="int" >       12        2        3        4        5 </v>
   <v type="int" >       24        2        4        4        5 </v>
   <v type="int" >       12        4        4        5        7 </v>
   <v type="int" >       24        3        4        5        5 </v>
   <v type="int" >       24        4        5        5        8 </v>
   <v type="int" >       24        4        5        7        8 </v>
   <v type="int" >       30        3        3        5        5 </v>
   <v type="int" >       36        3        5        5        5 </v>
   <v type="int" >       12        5        5        5        8 </v>
   <v type="int" >        6        5        5        8        8 </v>
   <v type="int" >       18        1        1        2        2 </v>
   <v type="int" >       24        1        2        2        2 </v>
   <v type="int" >       12        2        2        2        4 </v>
   <v type="int" >       12        4        5        6        7 </v>
   <v type="int" >       12        5        6        7        8 </v>
   <v type="int" >       12        6        7        8        9 </v>
   <v type="int" >       24        5        5        6        8 </v>
   <v type="int" >       12        5        6        6        8 </v>
   <v type="int" >       12        6        6        8        9 </v>
   <v type="int" >       12        5        6        8        8 </v>
   <v type="int" >       12        6        8        8        9 </v>
   <v type="int" >       12        6        8        9        9 </v>
   <v type="int" >       12        5        6        8        9 </v>
   <v type="int" >       12        5        7        8        8 </v>
   <v type="int" >       24        5        8        8        9 </v>
   <v type="int" >       12        2        3        4        7 </v>
   <v type="int" >       12        3        4        5        7 </v>
   <v type="int" >       12        3        5        7        8 </v>
   <v type="int" >       12        2        2        3        4 </v>
   <v type="int" >       12        2        3        3        4 </v>
   <v type="int" >       12        3        3        4        5 </v>
   <v type="int" >       12        2        3        4        4 </v>
   <v type="int" >       12        3        4        4        5 </v>
   <v type="int" >       12        6        6        6        9 </v>
   <v type="int" >       12        6        6        9        9 </v>
   <v type="int" >       12        6        9        9        9 </v>
   <v type="int" >       12        5        5        6        9 </v>
   <v type="int" >       12        5        6        6        9 </v>
   <v type="int" >       12        5        6        9        9 </v>
   <v type="int" >       12        5        5        8        9 </v>
   <v type="int" >       12        5        8        9        9 </v>
   <v type="int" >       12        3        3        5        8 </v>
   <v type="int" >       12        3        5        5        8 </v>
   <v type="int" >       12        3        5        8        8 </v>
   <v type="int" >       24        3        3        3        5 </v>
   <v type="int" >       12        4        5        6        9 </v>
   <v type="int" >       12        4        5        8        9 </v>
   <v type="int" >       12        4        7        8        9 </v>
   <v type="int" >       12        2        3        5        8 </v>
   <v type="int" >       12        2        4        5        8 </v>
   <v type="int" >       12        2        4        7        8 </v>
   <v type="int" >       12        2        3        3        5 </v>
   <v type="int" >       12        2        2        3        5 </v>
   <v type="int" >       12        2        2        4        5 </v>
   <v type="int" >       12        2        3        5        5 </v>
   <v type="int" >       12        2        4        5        5 </v>
   <v type="int" >       12        1        2        4        7 </v>
   <v type="int" >       12        1        1        2        4 </v>
   <v type="int" >       12        1        2        4        4 </v>
   <v type="int" >       12        1        1        1        2 </v>
   <v type="int" >       12        7        8        8        9 </v>
   <v type="int" >       18        8        8        9        9 </v>
   <v type="int" >       24        8        9        9       10 </v>
   <v type="int" >       12        8        9        9        9 </v>
   <v type="int" >       24        9        9        9       10 </v>
   <v type="int" >       18        9        9       10       10 </v>
   <v type="int" >        6        4        4        5        5 </v>
   <v type="int" >       12        4        5        5        5 </v>
   <v type="int" >       36        5        5        5        6 </v>
   <v type="int" >       30        5        5        6        6 </v>
   <v type="int" >       12        9       10       10       10 </v>
   <v type="int" >       12        8        8        9       10 </v>
   <v type="int" >       12        8        9       10       10 </v>
   <v type="int" >       24        5        6        6        6 </v>
   <v type="int" >       12        7        8        9       10 </v>
   <v type="int" >       12        4        5        5        6 </v>
   <v type="int" >       12        4        4        5        6 </v>
   <v type="int" >       12        4        5        6        6 </v>
   <v type="int" >       12        2        2        2        3 </v>
   <v type="int" >       12        2        2        3        3 </v>
   <v type="int" >       12        2        3        3        3 </v>
   <v type="int" >        6       10       10       10       10 </v>
   <v type="int" >       18        6        6        6        6 </v>
   <v type="int" >       18        3        3        3        3 </v>
   <v type="int" >        6        1        1        1        1 </v>
  </varray>
  <i name="volumeweight">      0.00077160 </i>
 </kpoints>
 <parameters>
  <separator name="general" >
   <i type="string" name="SYSTEM">unknown system</i>
   <i type="logical" name="LCOMPAT"> F  </i>
  </separator>
  <separator name="electronic" >
   <i type="string" name="PREC">normal</i>
   <i name="ENMAX">    300.00000000</i>
   <i name="ENAUG">    578.34200000</i>
   <i name="EDIFF">      0.00100000</i>
   <i type="int" name="IALGO">    68</i>
   <i type="int" name="IWAVPR">    11</i>
   <i type="int" name="NBANDS">    28</i>
   <i name="NELECT">     42.00000000</i>
   <i type="int" name="TURBO">     0</i>
   <i type="int" name="IRESTART">     0</i>
   <i type="int" name="NREBOOT">     0</i>
   <i type="int" name="NMIN">     0</i>
   <i name="EREF">      0.00000000</i>
   <separator name="electronic smearing" >
    <i type="int" name="ISMEAR">    -5</i>
    <i name="SIGMA">      0.05000000</i>
    <i name="KSPACING">      0.50000000</i>
    <i type="logical" name="KGAMMA"> T  </i>
   </separator>
   <separator name="electronic projectors" >
    <i type="logical" name="LREAL"> T  </i>
    <v name="ROPT">     -0.00050000     -0.00050000     -0.00050000</v>
    <i type="int" name="LMAXPAW">  -100</i>
    <i type="int" name="LMAXMIX">     4</i>
    <i type="logical" name="NLSPLINE"> F  </i>
   </separator>
   <separator name="electronic startup" >
    <i type="int" name="ISTART">     0</i>
    <i type="int" name="ICHARG">     2</i>
    <i type="int" name="INIWAV">     1</i>
   </separator>
   <separator name="electronic spin" >
    <i type="int" name="ISPIN">     2</i>
    <i type="logical" name="LNONCOLLINEAR"> F  </i>
    <v name="MAGMOM">      1.00000000      1.00000000      1.00000000      1.00000000      1.00000000</v>
    <i name="NUPDOWN">     -1.00000000</i>
    <i type="logical" name="LSORBIT"> F  </i>
    <v name="SAXIS">      0.00000000      0.00000000      1.00000000</v>
    <i type="logical" name="LSPIRAL"> F  </i>
    <v name="QSPIRAL">      0.00000000      0.00000000      0.00000000</v>
    <i type="logical" name="LZEROZ"> F  </i>
   </separator>
   <separator name="electronic exchange-correlation" >
    <i type="logical" name="LASPH"> F  </i>
    <i type="logical" name="LMETAGGA"> F  </i>
   </separator>
   <separator name="electronic convergence" >
    <i type="int" name="NELM">   100</i>
    <i type="int" name="NELMDL">    -5</i>
    <i type="int" name="NELMIN">     2</i>
    <i name="ENINI">    300.00000000</i>
    <separator name="electronic convergence detail" >
     <i type="logical" name="LDIAG"> T  </i>
     <i type="logical" name="LSUBROT"> F  </i>
     <i name="WEIMIN">      0.00100000</i>
     <i name="EBREAK">      0.00000893</i>
     <i name="DEPER">      0.30000000</i>
     <i type="int" name="NRMM">     4</i>
     <i name="TIME">      0.40000000</i>
    </separator>
   </separator>
   <separator name="electronic mixer" >
    <i name="AMIX">      0.40000000</i>
    <i name="BMIX">      1.00000000</i>
    <i name="AMIN">      0.10000000</i>
    <i name="AMIX_MAG">      1.60000000</i>
    <i name="BMIX_MAG">      1.00000000</i>
    <separator name="electronic mixer details" >
     <i type="int" name="IMIX">     4</i>
     <i type="logical" name="MIXFIRST"> F  </i>
     <i type="int" name="MAXMIX">   -45</i>
     <i name="WC">    100.00000000</i>
     <i type="int" name="INIMIX">     1</i>
     <i type="int" name="MIXPRE">     1</i>
     <i type="int" name="MREMOVE">     5</i>
    </separator>
   </separator>
   <separator name="electronic dipolcorrection" >
    <i type="logical" name="LDIPOL"> F  </i>
    <i type="logical" name="LMONO"> F  </i>
    <i type="int" name="IDIPOL">     0</i>
    <i name="EPSILON">      1.00000000</i>
    <v name="DIPOL">   -100.00000000   -100.00000000   -100.00000000</v>
    <i name="EFIELD">      0.00000000</i>
   </separator>
  </separator>
  <separator name="grids" >
   <i type="int" name="NGX">    18</i>
   <i type="int" name="NGY">    18</i>
   <i type="int" name="NGZ">    18</i>
   <i type="int" name="NGXF">    36</i>
   <i type="int" name="NGYF">    36</i>
   <i type="int" name="NGZF">    36</i>
   <i type="logical" name="ADDGRID"> F  </i>
  </separator>
  <separator name="ionic" >
   <i type="int" name="NSW">    99</i>
   <i type="int" name="IBRION">     1</i>
   <i type="int" name="ISIF">     0</i>
   <i name="PSTRESS">      0.00000000</i>
   <i name="EDIFFG">     -0.01000000</i>
   <i type="int" name="NFREE">     0</i>
   <i name="POTIM">      0.50000000</i>
   <i name="SMASS">     -3.00000000</i>
   <i name="SCALEE">      1.00000000</i>
  </separator>
  <separator name="ionic md" >
   <i name="TEBEG">      0.00010000</i>
   <i name="TEEND">      0.00010000</i>
   <i type="int" name="NBLOCK">     1</i>
   <i type="int" name="KBLOCK">    99</i>
   <i type="int" name="NPACO">   256</i>
   <i name="APACO">     16.00000000</i>
  </separator>
  <separator name="symmetry" >
   <i type="int" name="ISYM">     2</i>
   <i name="SYMPREC">      0.00001000</i>
  </separator>
  <separator name="dos" >
   <i type="logical" name="LORBIT"> F  </i>
   <v name="RWIGS">     -1.00000000     -1.00000000     -1.00000000</v>
   <i type="int" name="NEDOS">   301</i>
   <i name="EMIN">     10.00000000</i>
   <i name="EMAX">    -10.00000000</i>
   <i name="EFERMI">      0.00000000</i>
  </separator>
  <separator name="writing" >
   <i type="int" name="NWRITE">     2</i>
   <i type="logical" name="LWAVE"> F  </i>
   <i type="logical" name="LCHARG"> T  </i>
   <i type="logical" name="LPARD"> F  </i>
   <i type="logical" name="LVTOT"> F  </i>
   <i type="logical" name="LVHAR"> F  </i>
   <i type="logical" name="LELF"> F  </i>
   <i type="logical" name="LOPTICS"> F  </i>
   <v name="STM">      0.00000000      0.00000000      0.00000000      0.00000000      0.00000000      0.00000000      0.00000000</v>
  </separator>
  <separator name="performance" >
   <i type="int" name="NPAR">     2</i>
   <i type="int" name="NSIM">     4</i>
   <i type="int" name="NBLK">    -1</i>
   <i type="logical" name="LPLANE"> T  </i>
   <i type="logical" name="LSCALAPACK"> T  </i>
   <i type="logical" name="LSCAAWARE"> F  </i>
   <i type="logical" name="LSCALU"> F  </i>
   <i type="logical" name="LASYNC"> F  </i>
   <i type="logical" name="LORBITALREAL"> F  </i>
  </separator>
  <separator name="miscellaneous" >
   <i type="int" name="IDIOT">     3</i>
   <i type="logical" name="LMUSIC"> F  </i>
   <v name="POMASS">     87.62000000     55.84700000     16.00000000</v>
   <v name="DARWINR">      0.00000000      0.00000000      0.00000000</v>
   <v name="DARWINV">      1.00000000      1.00000000      1.00000000</v>
   <i type="logical" name="LCORR"> T  </i>
  </separator>
  <i type="logical" name="GGA_COMPAT"> T  </i>
  <i type="logical" name="LBERRY"> F  </i>
  <i type="int" name="ICORELEVEL">     0</i>
  <i type="logical" name="LDAU"> T  </i>
  <v type="int" name="LDAUTYPE">     2</v>
  <v type="int" name="LDAUL">     0</v>
  <v name="LDAUU">      0.00000000</v>
  <v name="LDAUJ">      0.00000000</v>
  <i type="int" name="LDAUPRINT">     1</i>
  <i type="int" name="I_CONSTRAINED_M">     0</i>
  <separator name="electronic exchange-correlation" >
   <i type="string" name="GGA">--</i>
   <i type="int" name="VOSKOWN">     0</i>
   <i type="logical" name="LHFCALC"> F  </i>
   <i type="string" name="PRECFOCK"></i>
   <i type="logical" name="LSYMGRAD"> F  </i>
   <i type="logical" name="LHFONE"> F  </i>
   <i type="logical" name="LRHFCALC"> F  </i>
   <i type="logical" name="LTHOMAS"> F  </i>
   <i type="logical" name="LMODELHF"> F  </i>
   <i name="ENCUT4O">     -1.00000000</i>
   <i type="int" name="EXXOEP">     0</i>
   <i type="int" name="FOURORBIT">     0</i>
   <i name="AEXX">      0.00000000</i>
   <i name="HFALPHA">      0.00000000</i>
   <i name="MCALPHA">      0.00000000</i>
   <i name="ALDAX">      1.00000000</i>
   <i name="AGGAX">      1.00000000</i>
   <i name="ALDAC">      1.00000000</i>
   <i name="AGGAC">      1.00000000</i>
   <i type="int" name="NKREDX">     1</i>
   <i type="int" name="NKREDY">     1</i>
   <i type="int" name="NKREDZ">     1</i>
   <i type="logical" name="SHIFTRED"> F  </i>
   <i type="logical" name="ODDONLY"> F  </i>
   <i type="logical" name="EVENONLY"> F  </i>
   <i type="int" name="LMAXFOCK">     0</i>
   <i type="int" name="NMAXFOCKAE">     0</i>
   <i type="logical" name="LFOCKAEDFT"> F  </i>
   <i name="HFSCREEN">      0.00000000</i>
   <i name="HFSCREENC">      0.00000000</i>
   <i type="int" name="NBANDSGWLOW">     0</i>
  </separator>
  <separator name="vdW DFT" >
   <i type="logical" name="LUSE_VDW"> F  </i>
   <i name="Zab_VDW">     -0.84910000</i>
   <i name="PARAM1">      0.12340000</i>
   <i name="PARAM2">      1.00000000</i>
   <i name="PARAM3">      0.00000000</i>
  </separator>
  <separator name="model GW" >
   <i type="int" name="MODEL_GW">     0</i>
   <i name="MODEL_EPS0">      7.39558500</i>
   <i name="MODEL_ALPHA">      1.00000000</i>
  </separator>
  <separator name="linear response parameters" >
   <i type="logical" name="LEPSILON"> F  </i>
   <i type="logical" name="LRPA"> F  </i>
   <i type="logical" name="LNABLA"> F  </i>
   <i type="logical" name="LVEL"> F  </i>
   <i type="int" name="KINTER">     0</i>
   <i name="CSHIFT">      0.10000000</i>
   <i name="OMEGAMAX">     -1.00000000</i>
   <i name="DEG_THRESHOLD">      0.00200000</i>
  </separator>
  <separator name="orbital magnetization" >
   <i type="logical" name="NUCIND"> F  </i>
   <v name="MAGPOS">      0.00000000      0.00000000      0.00000000</v>
   <i type="logical" name="LNICSALL"> T  </i>
   <i type="logical" name="ORBITALMAG"> F  </i>
   <i type="logical" name="LMAGBLOCH"> F  </i>
   <i type="logical" name="LCHIMAG"> F  </i>
   <i type="logical" name="LGAUGE"> T  </i>
   <i type="int" name="MAGATOM">     0</i>
   <v name="MAGDIPOL">      0.00000000      0.00000000      0.00000000</v>
   <v name="AVECCONST">      0.00000000      0.00000000      0.00000000</v>
  </separator>
  <separator name="response functions" >
   <i type="logical" name="LADDER"> F  </i>
   <i type="logical" name="LFXC"> F  </i>
   <i type="logical" name="LHARTREE"> T  </i>
   <i type="int" name="IBSE">     0</i>
   <v type="int" name="KPOINT">    -1     0     0     0</v>
   <i type="logical" name="LTCTE"> F  </i>
   <i type="logical" name="LTETE"> F  </i>
   <i type="logical" name="LTRIPLET"> F  </i>
   <i type="logical" name="LFXCEPS"> F  </i>
   <i type="logical" name="LFXHEG"> F  </i>
   <i type="int" name="NATURALO">     0</i>
   <i type="logical" name="L2ORDER"> F  </i>
   <i type="logical" name="LUSEW"> F  </i>
   <i name="ENCUTGW">     -2.00000000</i>
   <i name="ENCUTGWSOFT">     -2.00000000</i>
   <i name="ENCUTLF">     -1.00000000</i>
   <i type="int" name="LMAXMP2">    -1</i>
   <i name="SCISSOR">      0.00000000</i>
   <i type="int" name="NOMEGA">     0</i>
   <i type="int" name="NOMEGAR">     0</i>
   <i type="int" name="NBANDSGW">    -1</i>
   <i type="int" name="NBANDSO">    -1</i>
   <i type="int" name="NBANDSV">    -1</i>
   <i type="int" name="NELM">   100</i>
   <i type="int" name="NELMHF">     1</i>
   <i type="int" name="DIM">     3</i>
   <i type="int" name="ANTIRES">     0</i>
   <i name="OMEGAMAX">    -30.00000000</i>
   <i name="OMEGAMIN">    -30.00000000</i>
   <i name="OMEGATL">   -200.00000000</i>
   <i type="int" name="OMEGAGRID">     0</i>
   <i name="CSHIFT">     -0.10000000</i>
   <i type="logical" name="SELFENERGY"> F  </i>
   <i type="logical" name="LSPECTRAL"> F  </i>
   <i type="logical" name="LSPECTRALGW"> F  </i>
   <i type="logical" name="LSINGLES"> F  </i>
   <i type="logical" name="LFERMIGW"> F  </i>
   <i type="logical" name="ODDONLYGW"> F  </i>
   <i type="logical" name="EVENONLYGW"> F  </i>
   <i type="int" name="NKREDLFX">     1</i>
   <i type="int" name="NKREDLFY">     1</i>
   <i type="int" name="NKREDLFZ">     1</i>
   <i type="int" name="MAXMEM">  1800</i>
   <i type="int" name="TELESCOPE">     0</i>
   <i type="int" name="TAUPAR">     1</i>
   <i type="int" name="OMEGAPAR">    -1</i>
   <i name="LAMBDA">      1.00000000</i>
  </separator>
  <separator name="External order field" >
   <i name="OFIELD_KAPPA">      0.00000000</i>
   <v name="OFIELD_K">      0.00000000      0.00000000      0.00000000</v>
   <i name="OFIELD_Q6_NEAR">      0.00000000</i>
   <i name="OFIELD_Q6_FAR">      0.00000000</i>
   <i name="OFIELD_A">      0.00000000</i>
  </separator>
  <separator name="solvation model" >
   <i type="logical" name="LSOL"> F  </i>
  </separator>
 </parameters>
 <atominfo>
  <atoms>       5 </atoms>
  <types>       3 </types>
  <array name="atoms" >
   <dimension dim="1">ion</dimension>
   <field type="string">element</field>
   <field type="int">atomtype</field>
   <set>
    <rc><c>Sr</c><c>   1</c></rc>
    <rc><c>Fe</c><c>   2</c></rc>
    <rc><c>O </c><c>   3</c></rc>
    <rc><c>O </c><c>   3</c></rc>
    <rc><c>O </c><c>   3</c></rc>
   </set>
  </array>
  <array name="atomtypes" >
   <dimension dim="1">type</dimension>
   <field type="int">atomspertype</field>
   <field type="string">element</field>
   <field>mass</field>
   <field>valence</field>
   <field type="string">pseudopotential</field>
   <set>
    <rc><c>   1</c><c>Sr</c><c>     87.62000000</c><c>     10.00000000</c><c>  PAW Sr                                </c></rc>
    <rc><c>   1</c><c>Fe</c><c>     55.84700000</c><c>     14.00000000</c><c>  PAW Fe                                </c></rc>
    <rc><c>   3</c><c>O </c><c>     16.00000000</c><c>      6.00000000</c><c>  PAW O_s                               </c></rc>
   </set>
  </array>
 </atominfo>
 <structure name="initialpos" >
  <crystal>
   <varray name="basis" >
    <v>       3.95000000       0.00000000       0.00000000 </v>
    <v>       0.00000000       3.95000000       0.00000000 </v>
    <v>       0.00000000       0.00000000       3.95000000 </v>
   </varray>
   <i name="volume">     61.62987500 </i>
   <varray name="rec_basis" >
    <v>       0.25316456       0.00000000       0.00000000 </v>
    <v>       0.00000000       0.25316456       0.00000000 </v>
    <v>       0.00000000       0.00000000       0.25316456 </v>
   </varray>
  </crystal>
  <varray name="positions" >
   <v>       0.50000000       0.50000000       0.50000000 </v>
   <v>       0.00000000       0.00000000       0.00000000 </v>
   <v>       0.50000000       0.00000000       0.00000000 </v>
   <v>       0.00000000       0.50000000       0.00000000 </v>
   <v>       0.00000000       0.00000000       0.50000000 </v>
  </varray>
 </structure>
 <calculation>
  <scstep>
   <time name="dav">    0.47    0.47</time>
   <time name="total">    0.57    0.57</time>
   <energy>
    <i name="alphaZ">    278.89264705 </i>
    <i name="ewald">  -3198.37971444 </i>
    <i name="hartreedc">  -1311.01233975 </i>
    <i name="XCdc">    189.83011441 </i>
    <i name="pawpsdc">   3241.81915236 </i>
    <i name="pawaedc">  -3317.81696278 </i>
    <i name="eentropy">      0.00000000 </i>
    <i name="bandstr">   -166.63476531 </i>
    <i name="atom">   4601.94837920 </i>
    <i name="e_fr_energy">    318.64651073 </i>
    <i name="e_wo_entrp">    318.64651073 </i>
    <i name="e_0_energy">    318.64651073 </i>
   </energy>
  </scstep>
  <scstep>
   <time name="dav">    0.43    0.43</time>
   <time name="total">    0.45    0.45</time>
   <energy>
    <i name="e_fr_energy">    -19.55277633 </i>
    <i name="e_wo_entrp">    -19.55277633 </i>
    <i name="e_0_energy">    -19.55277633 </i>
   </energy>
  </scstep>
  <scstep>
   <time name="dav">    0.56    0.56</time>
   <time name="total">    0.58    0.58</time>
   <energy>
    <i name="e_fr_energy">    -37.08058927 </i>
    <i name="e_wo_entrp">    -37.08058927 </i>
    <i name="e_0_energy">    -37.08058927 </i>
   </energy>
  </scstep>
  <scstep>
   <time name="dav">    0.61    0.61</time>
   <time name="total">    0.63    0.63</time>
   <energy>
    <i name="e_fr_energy">    -37.58681701 </i>
    <i name="e_wo_entrp">    -37.58681701 </i>
    <i name="e_0_energy">    -37.58681701 </i>
   </energy>
  </scstep>
  <scstep>
   <time name="dav">    0.55    0.55</time>
   <time name="total">    0.59    0.59</time>
   <energy>
    <i name="e_fr_energy">    -37.59801054 </i>
    <i name="e_wo_entrp">    -37.59801054 </i>
    <i name="e_0_energy">    -37.59801054 </i>
   </energy>
  </scstep>
  <scstep>
   <time name="diag">    0.08    0.08</time>
   <time name="diis">    0.21    0.21</time>
   <time name="orth">    0.01    0.01</time>
   <time name="total">    0.43    0.43</time>
   <energy>
    <i name="e_fr_energy">    -43.73023927 </i>
    <i name="e_wo_entrp">    -43.73023927 </i>
    <i name="e_0_energy">    -43.73023927 </i>
   </energy>
  </scstep>
  <scstep>
   <time name="diag">    0.08    0.09</time>
   <time name="diis">    0.19    0.19</time>
   <time name="orth">    0.01    0.01</time>
   <time name="total">    0.41    0.42</time>
   <energy>
    <i name="e_fr_energy">    -32.21922376 </i>
    <i name="e_wo_entrp">    -32.21922376 </i>
    <i name="e_0_energy">    -32.21922376 </i>
   </energy>
  </scstep>
  <scstep>
   <time name="diag">    0.08    0.08</time>
   <time name="diis">    0.20    0.20</time>
   <time name="orth">    0.01    0.01</time>
   <time name="total">    0.42    0.42</time>
   <energy>
    <i name="e_fr_energy">    -32.19752579 </i>
    <i name="e_wo_entrp">    -32.19752579 </i>
    <i name="e_0_energy">    -32.19752579 </i>
   </energy>
  </scstep>
  <scstep>
   <time name="diag">    0.08    0.08</time>
   <time name="diis">    0.19    0.20</time>
   <time name="orth">    0.01    0.01</time>
   <time name="total">    0.41    0.41</time>
   <energy>
    <i name="e_fr_energy">    -31.52636162 </i>
    <i name="e_wo_entrp">    -31.52636162 </i>
    <i name="e_0_energy">    -31.52636162 </i>
   </energy>
  </scstep>
  <scstep>
   <time name="diag">    0.08    0.08</time>
   <time name="diis">    0.20    0.20</time>
   <time name="orth">    0.01    0.01</time>
   <time name="total">    0.42    0.42</time>
   <energy>
    <i name="e_fr_energy">    -31.42672700 </i>
    <i name="e_wo_entrp">    -31.42672700 </i>
    <i name="e_0_energy">    -31.42672700 </i>
   </energy>
  </scstep>
  <scstep>
   <time name="diag">    0.08    0.08</time>
   <time name="diis">    0.19    0.19</time>
   <time name="orth">    0.01    0.01</time>
   <time name="total">    0.41    0.42</time>
   <energy>
    <i name="e_fr_energy">    -31.44997291 </i>
    <i name="e_wo_entrp">    -31.44997291 </i>
    <i name="e_0_energy">    -31.44997291 </i>
   </energy>
  </scstep>
  <scstep>
   <time name="diag">    0.08    0.08</time>
   <time name="diis">    0.17    0.17</time>
   <time name="orth">    0.01    0.01</time>
   <time name="total">    0.39    0.40</time>
   <energy>
    <i name="e_fr_energy">    -31.45141731 </i>
    <i name="e_wo_entrp">    -31.45141731 </i>
    <i name="e_0_energy">    -31.45141731 </i>
   </energy>
  </scstep>
  <scstep>
   <time name="diag">    0.08    0.08</time>
   <time name="diis">    0.17    0.17</time>
   <time name="orth">    0.01    0.01</time>
   <time name="total">    0.37    0.37</time>
   <energy>
    <i name="alphaZ">    278.89264705 </i>
    <i name="ewald">  -3198.37971444 </i>
    <i name="hartreedc">  -1259.56701969 </i>
    <i name="XCdc">    191.03607001 </i>
    <i name="pawpsdc">   3431.12603278 </i>
    <i name="pawaedc">  -3518.11713712 </i>
    <i name="eentropy">      0.00000000 </i>
    <i name="bandstr">   -558.39159500 </i>
    <i name="atom">   4601.94837920 </i>
    <i name="e_fr_energy">    -31.45233721 </i>
    <i name="e_wo_entrp">    -31.45233721 </i>
    <i name="e_0_energy">    -31.45233721 </i>
   </energy>
  </scstep>
  <structure>
   <crystal>
    <varray name="basis" >
     <v>       3.95000000       0.00000000       0.00000000 </v>
     <v>       0.00000000       3.95000000       0.00000000 </v>
     <v>       0.00000000       0.00000000       3.95000000 </v>
    </varray>
    <i name="volume">     61.62987500 </i>
    <varray name="rec_basis" >
     <v>       0.25316456       0.00000000       0.00000000 </v>
     <v>       0.00000000       0.25316456       0.00000000 </v>
     <v>       0.00000000       0.00000000       0.25316456 </v>
    </varray>
   </crystal>
   <varray name="positions" >
    <v>       0.50000000       0.50000000       0.50000000 </v>
    <v>       0.00000000       0.00000000       0.00000000 </v>
    <v>       0.50000000       0.00000000       0.00000000 </v>
    <v>       0.00000000       0.50000000       0.00000000 </v>
    <v>       0.00000000       0.00000000       0.50000000 </v>
   </varray>
  </structure>
  <varray name="forces" >
   <v>       0.00000000       0.00000000       0.00000000 </v>
   <v>       0.00000000       0.00000000       0.00000000 </v>
   <v>       0.00000000       0.00000000       0.00000000 </v>
   <v>       0.00000000       0.00000000       0.00000000 </v>
   <v>       0.00000000       0.00000000       0.00000000 </v>
  </varray>
  <energy>
   <i name="e_fr_energy">    -31.45233721 </i>
   <i name="e_wo_entrp">    -31.45233721 </i>
   <i name="e_0_energy">      0.00000000 </i>
  </energy>
  <time name="totalsc">    6.52    6.56</time>
  <eigenvalues>
   <array>
    <dimension dim="1">band</dimension>
    <dimension dim="2">kpoint</dimension>
    <dimension dim="3">spin</dimension>
    <field>eigene</field>
    <field>occ</field>
    <set>
     <set comment="spin 1">
      <set comment="kpoint 1">
       <r>  -54.8626    1.0000 </r>
       <r>  -54.8626    1.0000 </r>
       <r>  -54.8624    1.0000 </r>
       <r>  -30.3122    1.0000 </r>
       <r>  -15.3924    1.0000 </r>
       <r>  -14.2544    1.0000 </r>
       <r>  -14.2544    1.0000 </r>
       <r>  -12.3340    1.0000 </r>
       <r>  -12.3340    1.0000 </r>
       <r>  -12.2806    1.0000 </r>
       <r>   -4.5481    1.0000 </r>
       <r>   -4.5481    1.0000 </r>
       <r>   -4.5424    1.0000 </r>
       <r>   -3.4159    1.0000 </r>
       <r>   -3.4159    1.0000 </r>
       <r>   -1.6919    1.0000 </r>
       <r>   -1.0494    1.0000 </r>
       <r>   -1.0494    1.0000 </r>
       <r>    1.0120    1.0000 </r>
       <r>    1.0120    1.0000 </r>
       <r>    1.2170    1.0000 </r>
       <r>    1.3535    1.0000 </r>
       <r>    1.7781    1.0001 </r>
       <r>    1.7781    1.0343 </r>
       <r>    8.2025    0.0000 </r>
       <r>    8.2026    0.0000 </r>
       <r>    8.5243    0.0000 </r>
       <r>   10.4044    0.0000 </r>
      </set>
      <set comment="kpoint 2">
       <r>  -54.8628    1.0000 </r>
       <r>  -54.8625    1.0000 </r>
       <r>  -54.8623    1.0000 </r>
       <r>  -30.3038    1.0000 </r>
       <r>  -15.3654    1.0000 </r>
       <r>  -14.3219    1.0000 </r>
       <r>  -14.2288    1.0000 </r>
       <r>  -12.3314    1.0000 </r>
       <r>  -12.2917    1.0000 </r>
       <r>  -12.1086    1.0000 </r>
       <r>   -4.6587    1.0000 </r>
       <r>   -4.6458    1.0000 </r>
       <r>   -4.5461    1.0000 </r>
       <r>   -4.5005    1.0000 </r>
       <r>   -3.4124    1.0000 </r>
       <r>   -1.7056    1.0000 </r>
       <r>   -0.9778    1.0000 </r>
       <r>   -0.2303    1.0000 </r>
       <r>    0.6803    1.0000 </r>
       <r>    0.9314    1.0000 </r>
       <r>    1.0050    1.0000 </r>
       <r>    1.2327    1.0000 </r>
       <r>    1.6703    1.0012 </r>
       <r>    1.8926    0.9941 </r>
       <r>    8.8634    0.0000 </r>
       <r>    8.9233    0.0000 </r>
       <r>    9.5343    0.0000 </r>
       <r>   10.5369    0.0000 </r>
      </set>
      <set comment="kpoint 3">
       <r>  -54.8633    1.0000 </r>
       <r>  -54.8624    1.0000 </r>
       <r>  -54.8623    1.0000 </r>
       <r>  -30.2954    1.0000 </r>
       <r>  -15.3836    1.0000 </r>
       <r>  -14.3037    1.0000 </r>
       <r>  -14.2041    1.0000 </r>
       <r>  -12.3291    1.0000 </r>
       <r>  -12.2600    1.0000 </r>
       <r>  -11.9575    1.0000 </r>
       <r>   -5.2919    1.0000 </r>
       <r>   -4.7593    1.0000 </r>
       <r>   -4.7365    1.0000 </r>
       <r>   -4.5470    1.0000 </r>
       <r>   -3.4111    1.0000 </r>
       <r>   -1.6215    1.0000 </r>
       <r>   -0.9363    1.0000 </r>
       <r>   -0.1505    1.0000 </r>
       <r>    0.4427    1.0000 </r>
       <r>    0.8414    1.0000 </r>
       <r>    1.1935    1.0000 </r>
       <r>    1.2947    1.0000 </r>
       <r>    1.4827    1.0017 </r>
       <r>    1.8392    0.9219 </r>
       <r>    9.5965    0.0000 </r>
       <r>    9.7489    0.0000 </r>
       <r>   10.6571    0.0000 </r>
       <r>   11.0457    0.0000 </r>
      </set>
      <set comment="kpoint 4">
       <r>  -54.8629    1.0000 </r>
       <r>  -54.8627    1.0000 </r>
       <r>  -54.8623    1.0000 </r>
       <r>  -30.2959    1.0000 </r>
       <r>  -15.2496    1.0000 </r>
       <r>  -14.4004    1.0000 </r>
       <r>  -14.2294    1.0000 </r>
       <r>  -12.3196    1.0000 </r>
       <r>  -12.2191    1.0000 </r>
       <r>  -12.0837    1.0000 </r>
       <r>   -4.7969    1.0000 </r>
       <r>   -4.7241    1.0000 </r>
       <r>   -4.6647    1.0000 </r>
       <r>   -4.6530    1.0000 </r>
       <r>   -4.1723    1.0000 </r>
       <r>   -1.8233    1.0000 </r>
       <r>   -0.5053    1.0000 </r>
       <r>    0.2888    1.0000 </r>
       <r>    0.3525    1.0000 </r>
       <r>    0.6154    1.0000 </r>
       <r>    0.9233    1.0000 </r>
       <r>    1.4349    1.0000 </r>
       <r>    1.6024    1.0213 </r>
       <r>    2.3958    0.2502 </r>
       <r>    9.2856    0.0000 </r>
       <r>    9.6381    0.0000 </r>
       <r>    9.9528    0.0000 </r>
       <r>   11.0210    0.0000 </r>
      </set>
      <set comment="kpoint 5">
       <r>  -54.8634    1.0000 </r>
       <r>  -54.8629    1.0000 </r>
       <r>  -54.8622    1.0000 </r>
       <r>  -30.2879    1.0000 </r>
       <r>  -15.1642    1.0000 </r>
       <r>  -14.4238    1.0000 </r>
       <r>  -14.2289    1.0000 </r>
       <r>  -12.3256    1.0000 </r>
       <r>  -12.1689    1.0000 </r>
       <r>  -12.0351    1.0000 </r>
       <r>   -5.3364    1.0000 </r>
       <r>   -4.9274    1.0000 </r>
       <r>   -4.7613    1.0000 </r>
       <r>   -4.6705    1.0000 </r>
       <r>   -4.3383    1.0000 </r>
       <r>   -1.7321    1.0000 </r>
       <r>   -0.2981    1.0000 </r>
       <r>   -0.1022    1.0000 </r>
       <r>    0.4602    1.0000 </r>
       <r>    0.6169    1.0000 </r>
       <r>    1.0827    1.0000 </r>
       <r>    1.3955    1.0000 </r>
       <r>    1.6828    1.0320 </r>
       <r>    2.7025   -0.0031 </r>
       <r>    9.9221    0.0000 </r>
       <r>   10.3795    0.0000 </r>
       <r>   10.6357    0.0000 </r>
       <r>   11.2364    0.0000 </r>
      </set>
      <set comment="kpoint 6">
       <r>  -54.8634    1.0000 </r>
       <r>  -54.8632    1.0000 </r>
       <r>  -54.8623    1.0000 </r>
       <r>  -30.2804    1.0000 </r>
       <r>  -14.8515    1.0000 </r>
       <r>  -14.5296    1.0000 </r>
       <r>  -14.3573    1.0000 </r>
       <r>  -12.2947    1.0000 </r>
       <r>  -12.1176    1.0000 </r>
       <r>  -12.0871    1.0000 </r>
       <r>   -5.5127    1.0000 </r>
       <r>   -5.0915    1.0000 </r>
       <r>   -4.9531    1.0000 </r>
       <r>   -4.7827    1.0000 </r>
       <r>   -4.7790    1.0000 </r>
       <r>   -1.6552    1.0000 </r>
       <r>   -0.2631    1.0000 </r>
       <r>    0.1913    1.0000 </r>
       <r>    0.5651    1.0000 </r>
       <r>    0.5842    1.0000 </r>
       <r>    1.0180    1.0000 </r>
       <r>    1.1573    1.0000 </r>
       <r>    2.0265    1.0472 </r>
       <r>    3.3901    0.0000 </r>
       <r>   10.1719    0.0000 </r>
       <r>   10.4458    0.0000 </r>
       <r>   11.2551    0.0000 </r>
       <r>   11.3202    0.0000 </r>
      </set>
      <set comment="kpoint 7">
       <r>  -54.8629    1.0000 </r>
       <r>  -54.8629    1.0000 </r>
       <r>  -54.8629    1.0000 </r>
       <r>  -30.2883    1.0000 </r>
       <r>  -15.1037    1.0000 </r>
       <r>  -14.3170    1.0000 </r>
       <r>  -14.3170    1.0000 </r>
       <r>  -12.3200    1.0000 </r>
       <r>  -12.3200    1.0000 </r>
       <r>  -12.0481    1.0000 </r>
       <r>   -4.8331    1.0000 </r>
       <r>   -4.7696    1.0000 </r>
       <r>   -4.7696    1.0000 </r>
       <r>   -4.7152    1.0000 </r>
       <r>   -4.7152    1.0000 </r>
       <r>   -2.6045    1.0000 </r>
       <r>    0.0948    1.0000 </r>
       <r>    0.4144    1.0000 </r>
       <r>    0.4144    1.0000 </r>
       <r>    0.7749    1.0000 </r>
       <r>    0.7749    1.0000 </r>
       <r>    1.6517    1.0000 </r>
       <r>    2.3351    0.6937 </r>
       <r>    2.3351    0.1271 </r>
       <r>    9.7586    0.0000 </r>
       <r>    9.7631    0.0000 </r>
       <r>    9.9120    0.0000 </r>
       <r>   11.1404    0.0000 </r>
      </set>
      <set comment="kpoint 8">
       <r>  -54.8633    1.0000 </r>
       <r>  -54.8629    1.0000 </r>
       <r>  -54.8628    1.0000 </r>
       <r>  -30.2808    1.0000 </r>
       <r>  -14.9560    1.0000 </r>
       <r>  -14.3972    1.0000 </r>
       <r>  -14.2226    1.0000 </r>
       <r>  -12.4309    1.0000 </r>
       <r>  -12.2252    1.0000 </r>
       <r>  -12.1056    1.0000 </r>
       <r>   -5.3620    1.0000 </r>
       <r>   -4.9447    1.0000 </r>
       <r>   -4.8525    1.0000 </r>
       <r>   -4.7763    1.0000 </r>
       <r>   -4.7220    1.0000 </r>
       <r>   -2.7912    1.0000 </r>
       <r>   -0.0394    1.0000 </r>
       <r>    0.3707    1.0000 </r>
       <r>    0.4613    1.0000 </r>
       <r>    0.8226    1.0000 </r>
       <r>    1.4170    1.0000 </r>
       <r>    1.8016    1.0000 </r>
       <r>    2.2284    0.7362 </r>
       <r>    2.8147   -0.0170 </r>
       <r>   10.0932    0.0000 </r>
       <r>   10.2495    0.0000 </r>
       <r>   10.2555    0.0000 </r>
       <r>   10.8635    0.0000 </r>
      </set>
      <set comment="kpoint 9">
       <r>  -54.8633    1.0000 </r>
       <r>  -54.8632    1.0000 </r>
       <r>  -54.8628    1.0000 </r>
       <r>  -30.2736    1.0000 </r>
       <r>  -14.6619    1.0000 </r>
       <r>  -14.3978    1.0000 </r>
       <r>  -14.2740    1.0000 </r>
       <r>  -12.4481    1.0000 </r>
       <r>  -12.3105    1.0000 </r>
       <r>  -12.2207    1.0000 </r>
       <r>   -5.5108    1.0000 </r>
       <r>   -5.1476    1.0000 </r>
       <r>   -5.0255    1.0000 </r>
       <r>   -4.8715    1.0000 </r>
       <r>   -4.8673    1.0000 </r>
       <r>   -3.1285    1.0000 </r>
       <r>    0.0099    1.0000 </r>
       <r>    0.4120    1.0000 </r>
       <r>    0.4329    1.0000 </r>
       <r>    1.4306    1.0000 </r>
       <r>    1.5682    1.0000 </r>
       <r>    2.0637    1.0000 </r>
       <r>    2.3117    0.2858 </r>
       <r>    3.3840    0.0000 </r>
       <r>    9.8163    0.0000 </r>
       <r>   10.1446    0.0000 </r>
       <r>   10.2047    0.0000 </r>
       <r>   11.0436    0.0000 </r>
      </set>
      <set comment="kpoint 10">
       <r>  -54.8631    1.0000 </r>
       <r>  -54.8631    1.0000 </r>
       <r>  -54.8629    1.0000 </r>
       <r>  -30.2667    1.0000 </r>
       <r>  -14.4040    1.0000 </r>
       <r>  -14.2382    1.0000 </r>
       <r>  -14.2382    1.0000 </r>
       <r>  -12.5301    1.0000 </r>
       <r>  -12.5301    1.0000 </r>
       <r>  -12.4235    1.0000 </r>
       <r>   -5.5088    1.0000 </r>
       <r>   -5.5088    1.0000 </r>
       <r>   -4.9775    1.0000 </r>
       <r>   -4.9458    1.0000 </r>
       <r>   -4.9458    1.0000 </r>
       <r>   -3.7630    1.0000 </r>
       <r>    0.2790    1.0000 </r>
       <r>    0.3967    1.0000 </r>
       <r>    0.3967    1.0000 </r>
       <r>    2.0028    1.0000 </r>
       <r>    2.0028    1.0000 </r>
       <r>    2.1274    1.0000 </r>
       <r>    3.3684   -0.0313 </r>
       <r>    3.3684    0.0000 </r>
       <r>    9.3979    0.0000 </r>
       <r>    9.4898    0.0000 </r>
       <r>    9.4899    0.0000 </r>
       <r>   11.8059    0.0000 </r>
      </set>
     </set>
     <set comment="spin 2">
      <set comment="kpoint 1">
       <r>  -50.4945    1.0000 </r>
       <r>  -50.4945    1.0000 </r>
       <r>  -50.4943    1.0000 </r>
       <r>  -30.3068    1.0000 </r>
       <r>  -15.2266    1.0000 </r>
       <r>  -13.8695    1.0000 </r>
       <r>  -13.8695    1.0000 </r>
       <r>  -12.3172    1.0000 </r>
       <r>  -12.3172    1.0000 </r>
       <r>  -12.2701    1.0000 </r>
       <r>   -1.5608    1.0000 </r>
       <r>   -1.3587    1.0000 </r>
       <r>   -1.3587    1.0000 </r>
       <r>    1.0427    1.0000 </r>
       <r>    1.0427    1.0000 </r>
       <r>    1.3615    1.0000 </r>
       <r>    1.4474    1.0000 </r>
       <r>    1.6934    1.0000 </r>
       <r>    1.6934    1.0000 </r>
       <r>    3.7149    0.0000 </r>
       <r>    3.7578    0.0000 </r>
       <r>    3.7578    0.0000 </r>
       <r>    4.2611    0.0000 </r>
       <r>    4.2611    0.0000 </r>
       <r>    8.2550    0.0000 </r>
       <r>    8.2550    0.0000 </r>
       <r>    8.7194    0.0000 </r>
       <r>   10.6558    0.0000 </r>
      </set>
      <set comment="kpoint 2">
       <r>  -50.4951    1.0000 </r>
       <r>  -50.4943    1.0000 </r>
       <r>  -50.4942    1.0000 </r>
       <r>  -30.2985    1.0000 </r>
       <r>  -15.1978    1.0000 </r>
       <r>  -14.0421    1.0000 </r>
       <r>  -13.8392    1.0000 </r>
       <r>  -12.3175    1.0000 </r>
       <r>  -12.2743    1.0000 </r>
       <r>  -12.0720    1.0000 </r>
       <r>   -1.9334    1.0000 </r>
       <r>   -1.3449    1.0000 </r>
       <r>   -1.3159    1.0000 </r>
       <r>    0.3475    1.0000 </r>
       <r>    0.4507    1.0000 </r>
       <r>    0.9586    1.0000 </r>
       <r>    1.3295    1.0000 </r>
       <r>    1.3860    1.0000 </r>
       <r>    1.5232    1.0000 </r>
       <r>    3.7652    0.0000 </r>
       <r>    4.1827    0.0000 </r>
       <r>    4.2593    0.0000 </r>
       <r>    4.3393    0.0000 </r>
       <r>    5.0788    0.0000 </r>
       <r>    8.9405    0.0000 </r>
       <r>    8.9838    0.0000 </r>
       <r>    9.7120    0.0000 </r>
       <r>   10.7103    0.0000 </r>
      </set>
      <set comment="kpoint 3">
       <r>  -50.4958    1.0000 </r>
       <r>  -50.4943    1.0000 </r>
       <r>  -50.4942    1.0000 </r>
       <r>  -30.2901    1.0000 </r>
       <r>  -15.1978    1.0000 </r>
       <r>  -14.1344    1.0000 </r>
       <r>  -13.8093    1.0000 </r>
       <r>  -12.3185    1.0000 </r>
       <r>  -12.2470    1.0000 </r>
       <r>  -11.9114    1.0000 </r>
       <r>   -2.2631    1.0000 </r>
       <r>   -1.3108    1.0000 </r>
       <r>   -1.2633    1.0000 </r>
       <r>   -0.3195    1.0000 </r>
       <r>    0.0511    1.0000 </r>
       <r>    0.7835    1.0000 </r>
       <r>    1.0873    1.0000 </r>
       <r>    1.1383    1.0000 </r>
       <r>    1.3892    1.0000 </r>
       <r>    3.7908    0.0000 </r>
       <r>    4.2363    0.0000 </r>
       <r>    4.7009    0.0000 </r>
       <r>    4.7191    0.0000 </r>
       <r>    5.6098    0.0000 </r>
       <r>    9.6843    0.0000 </r>
       <r>    9.8171    0.0000 </r>
       <r>   10.7342    0.0000 </r>
       <r>   11.1980    0.0000 </r>
      </set>
      <set comment="kpoint 4">
       <r>  -50.4951    1.0000 </r>
       <r>  -50.4950    1.0000 </r>
       <r>  -50.4942    1.0000 </r>
       <r>  -30.2906    1.0000 </r>
       <r>  -15.0880    1.0000 </r>
       <r>  -14.1503    1.0000 </r>
       <r>  -13.8912    1.0000 </r>
       <r>  -12.3059    1.0000 </r>
       <r>  -12.1752    1.0000 </r>
       <r>  -12.0612    1.0000 </r>
       <r>   -2.2359    1.0000 </r>
       <r>   -1.4242    1.0000 </r>
       <r>   -1.2389    1.0000 </r>
       <r>   -0.4777    1.0000 </r>
       <r>    0.3256    1.0000 </r>
       <r>    0.4657    1.0000 </r>
       <r>    1.2266    1.0000 </r>
       <r>    1.2794    1.0000 </r>
       <r>    1.7504    1.0042 </r>
       <r>    4.2139    0.0000 </r>
       <r>    4.3183    0.0000 </r>
       <r>    4.4349    0.0000 </r>
       <r>    4.6403    0.0000 </r>
       <r>    5.6727    0.0000 </r>
       <r>    9.3862    0.0000 </r>
       <r>    9.7033    0.0000 </r>
       <r>   10.0898    0.0000 </r>
       <r>   11.1205    0.0000 </r>
      </set>
      <set comment="kpoint 5">
       <r>  -50.4959    1.0000 </r>
       <r>  -50.4950    1.0000 </r>
       <r>  -50.4941    1.0000 </r>
       <r>  -30.2827    1.0000 </r>
       <r>  -14.9855    1.0000 </r>
       <r>  -14.2613    1.0000 </r>
       <r>  -13.8995    1.0000 </r>
       <r>  -12.3147    1.0000 </r>
       <r>  -12.1443    1.0000 </r>
       <r>  -11.9973    1.0000 </r>
       <r>   -2.5366    1.0000 </r>
       <r>   -1.4781    1.0000 </r>
       <r>   -1.1316    1.0000 </r>
       <r>   -1.0622    1.0000 </r>
       <r>   -0.0601    1.0000 </r>
       <r>    0.4484    1.0000 </r>
       <r>    0.9676    1.0000 </r>
       <r>    1.1852    1.0000 </r>
       <r>    1.8480    1.0427 </r>
       <r>    4.2762    0.0000 </r>
       <r>    4.6513    0.0000 </r>
       <r>    4.7141    0.0000 </r>
       <r>    4.7703    0.0000 </r>
       <r>    6.2622    0.0000 </r>
       <r>   10.0176    0.0000 </r>
       <r>   10.4508    0.0000 </r>
       <r>   10.6951    0.0000 </r>
       <r>   11.2419    0.0000 </r>
      </set>
      <set comment="kpoint 6">
       <r>  -50.4958    1.0000 </r>
       <r>  -50.4957    1.0000 </r>
       <r>  -50.4941    1.0000 </r>
       <r>  -30.2752    1.0000 </r>
       <r>  -14.6664    1.0000 </r>
       <r>  -14.3826    1.0000 </r>
       <r>  -14.1015    1.0000 </r>
       <r>  -12.2873    1.0000 </r>
       <r>  -12.0835    1.0000 </r>
       <r>  -12.0592    1.0000 </r>
       <r>   -2.8710    1.0000 </r>
       <r>   -1.6126    1.0000 </r>
       <r>   -1.5782    1.0000 </r>
       <r>   -0.8646    1.0000 </r>
       <r>   -0.1444    1.0000 </r>
       <r>   -0.0209    1.0000 </r>
       <r>    1.0293    1.0000 </r>
       <r>    1.0970    1.0000 </r>
       <r>    2.2714    0.5935 </r>
       <r>    4.6763    0.0000 </r>
       <r>    4.7162    0.0000 </r>
       <r>    4.7991    0.0000 </r>
       <r>    4.9133    0.0000 </r>
       <r>    6.9762    0.0000 </r>
       <r>   10.2167    0.0000 </r>
       <r>   10.5305    0.0000 </r>
       <r>   11.3619    0.0000 </r>
       <r>   11.4784    0.0000 </r>
      </set>
      <set comment="kpoint 7">
       <r>  -50.4951    1.0000 </r>
       <r>  -50.4951    1.0000 </r>
       <r>  -50.4950    1.0000 </r>
       <r>  -30.2831    1.0000 </r>
       <r>  -14.9537    1.0000 </r>
       <r>  -14.0548    1.0000 </r>
       <r>  -14.0548    1.0000 </r>
       <r>  -12.2873    1.0000 </r>
       <r>  -12.2873    1.0000 </r>
       <r>  -12.0278    1.0000 </r>
       <r>   -2.4966    1.0000 </r>
       <r>   -1.3875    1.0000 </r>
       <r>   -1.3875    1.0000 </r>
       <r>   -0.5715    1.0000 </r>
       <r>   -0.2493    1.0000 </r>
       <r>   -0.2493    1.0000 </r>
       <r>    1.5369    1.0000 </r>
       <r>    1.5369    1.0000 </r>
       <r>    1.8891    1.0236 </r>
       <r>    4.4409    0.0000 </r>
       <r>    4.5190    0.0000 </r>
       <r>    4.5190    0.0000 </r>
       <r>    5.6546    0.0000 </r>
       <r>    5.6546    0.0000 </r>
       <r>    9.8601    0.0000 </r>
       <r>    9.8636    0.0000 </r>
       <r>   10.0137    0.0000 </r>
       <r>   11.2403    0.0000 </r>
      </set>
      <set comment="kpoint 8">
       <r>  -50.4958    1.0000 </r>
       <r>  -50.4950    1.0000 </r>
       <r>  -50.4949    1.0000 </r>
       <r>  -30.2756    1.0000 </r>
       <r>  -14.7911    1.0000 </r>
       <r>  -14.2343    1.0000 </r>
       <r>  -13.9433    1.0000 </r>
       <r>  -12.4141    1.0000 </r>
       <r>  -12.1931    1.0000 </r>
       <r>  -12.0809    1.0000 </r>
       <r>   -2.7938    1.0000 </r>
       <r>   -1.4781    1.0000 </r>
       <r>   -1.3393    1.0000 </r>
       <r>   -1.0526    1.0000 </r>
       <r>   -0.6021    1.0000 </r>
       <r>   -0.2325    1.0000 </r>
       <r>    1.5412    1.0005 </r>
       <r>    1.6457    1.0005 </r>
       <r>    1.9758    1.0827 </r>
       <r>    4.5336    0.0000 </r>
       <r>    4.7833    0.0000 </r>
       <r>    4.8169    0.0000 </r>
       <r>    5.6200    0.0000 </r>
       <r>    6.4120    0.0000 </r>
       <r>   10.1860    0.0000 </r>
       <r>   10.3335    0.0000 </r>
       <r>   10.3723    0.0000 </r>
       <r>   10.9276    0.0000 </r>
      </set>
      <set comment="kpoint 9">
       <r>  -50.4957    1.0000 </r>
       <r>  -50.4957    1.0000 </r>
       <r>  -50.4949    1.0000 </r>
       <r>  -30.2684    1.0000 </r>
       <r>  -14.4996    1.0000 </r>
       <r>  -14.2424    1.0000 </r>
       <r>  -14.0528    1.0000 </r>
       <r>  -12.4330    1.0000 </r>
       <r>  -12.2806    1.0000 </r>
       <r>  -12.1959    1.0000 </r>
       <r>   -3.1365    1.0000 </r>
       <r>   -1.6020    1.0000 </r>
       <r>   -1.3255    1.0000 </r>
       <r>   -1.2738    1.0000 </r>
       <r>   -0.6155    1.0000 </r>
       <r>   -0.6067    1.0000 </r>
       <r>    1.7443    1.0196 </r>
       <r>    1.7896    1.0197 </r>
       <r>    2.3059    0.3857 </r>
       <r>    4.8330    0.0000 </r>
       <r>    4.8518    0.0000 </r>
       <r>    4.9704    0.0000 </r>
       <r>    5.9375    0.0000 </r>
       <r>    6.9690    0.0000 </r>
       <r>    9.8976    0.0000 </r>
       <r>   10.2481    0.0000 </r>
       <r>   10.3198    0.0000 </r>
       <r>   11.1085    0.0000 </r>
      </set>
      <set comment="kpoint 10">
       <r>  -50.4956    1.0000 </r>
       <r>  -50.4956    1.0000 </r>
       <r>  -50.4955    1.0000 </r>
       <r>  -30.2616    1.0000 </r>
       <r>  -14.2551    1.0000 </r>
       <r>  -14.0691    1.0000 </r>
       <r>  -14.0691    1.0000 </r>
       <r>  -12.5099    1.0000 </r>
       <r>  -12.5099    1.0000 </r>
       <r>  -12.4008    1.0000 </r>
       <r>   -3.5001    1.0000 </r>
       <r>   -1.5900    1.0000 </r>
       <r>   -1.5900    1.0000 </r>
       <r>   -1.0164    1.0000 </r>
       <r>   -0.8809    1.0000 </r>
       <r>   -0.8809    1.0000 </r>
       <r>    2.2565    0.8025 </r>
       <r>    2.2565    0.8008 </r>
       <r>    2.3733    0.0728 </r>
       <r>    5.0217    0.0000 </r>
       <r>    5.0376    0.0000 </r>
       <r>    5.0376    0.0000 </r>
       <r>    6.9556    0.0000 </r>
       <r>    6.9556    0.0000 </r>
       <r>    9.4933    0.0000 </r>
       <r>    9.5794    0.0000 </r>
       <r>    9.5796    0.0000 </r>
       <r>   11.8251    0.0000 </r>
      </set>
     </set>
    </set>
   </array>
  </eigenvalues>
  <separator name="orbital magnetization" >
   <v name="MAGDIPOLOUT">      0.00000000      0.00000000      0.00000000</v>
  </separator>
 </calculation>
 <structure name="finalpos" >
  <crystal>
   <varray name="basis" >
    <v>       3.95000000       0.00000000       0.00000000 </v>
    <v>       0.00000000       3.95000000       0.00000000 </v>
    <v>       0.00000000       0.00000000       3.95000000 </v>
   </varray>
   <i name="volume">     61.62987500 </i>
   <varray name="rec_basis" >
    <v>       0.25316456       0.00000000       0.00000000 </v>
    <v>       0.00000000       0.25316456       0.00000000 </v>
    <v>       0.00000000       0.00000000       0.25316456 </v>
   </varray>
  </crystal>
  <varray name="positions" >
   <v>       0.50000000       0.50000000       0.50000000 </v>
   <v>       0.00000000       0.00000000       0.00000000 </v>
   <v>       0.50000000       0.00000000       0.00000000 </v>
   <v>       0.00000000       0.50000000       0.00000000 </v>
   <v>       0.00000000       0.00000000       0.50000000 </v>
  </varray>
 </structure>
</modeling>
