  20  20   0   0
  0.2307428E+02  0.3886808E-09  0.3886808E-09  0.3054723E-08  0.5000000E-15
  1.000000000000000E-004
  CAR 
 unknown system                          
     10.85646884    -61.51661269  301     -1.22765506      1.00000000
    -61.517  0.0000E+00  0.0000E+00  0.0000E+00  0.0000E+00
    -61.275  0.0000E+00  0.0000E+00  0.0000E+00  0.0000E+00
    -61.034  0.0000E+00  0.0000E+00  0.0000E+00  0.0000E+00
    -60.793  0.0000E+00  0.0000E+00  0.0000E+00  0.0000E+00
    -60.552  0.0000E+00  0.0000E+00  0.0000E+00  0.0000E+00
    -60.310  0.0000E+00  0.0000E+00  0.0000E+00  0.0000E+00
    -60.069  0.0000E+00  0.0000E+00  0.0000E+00  0.0000E+00
    -59.828  0.0000E+00  0.0000E+00  0.0000E+00  0.0000E+00
    -59.587  0.0000E+00  0.0000E+00  0.0000E+00  0.0000E+00
    -59.345  0.0000E+00  0.0000E+00  0.0000E+00  0.0000E+00
    -59.104  0.0000E+00  0.0000E+00  0.0000E+00  0.0000E+00
    -58.863  0.0000E+00  0.0000E+00  0.0000E+00  0.0000E+00
    -58.622  0.0000E+00  0.0000E+00  0.0000E+00  0.0000E+00
    -58.380  0.2930E-06  0.0000E+00  0.7069E-07  0.0000E+00
    -58.139  0.9428E-01  0.0000E+00  0.2274E-01  0.0000E+00
    -57.898  0.4017E+00  0.0000E+00  0.1196E+00  0.0000E+00
    -57.657  0.6494E-02  0.0000E+00  0.1212E+00  0.0000E+00
    -57.415  0.0000E+00  0.0000E+00  0.1212E+00  0.0000E+00
    -57.174  0.0000E+00  0.0000E+00  0.1212E+00  0.0000E+00
    -56.933  0.0000E+00  0.0000E+00  0.1212E+00  0.0000E+00
    -56.692  0.0000E+00  0.0000E+00  0.1212E+00  0.0000E+00
    -56.450  0.0000E+00  0.0000E+00  0.1212E+00  0.0000E+00
    -56.209  0.0000E+00  0.0000E+00  0.1212E+00  0.0000E+00
    -55.968  0.0000E+00  0.0000E+00  0.1212E+00  0.0000E+00
    -55.727  0.0000E+00  0.0000E+00  0.1212E+00  0.0000E+00
    -55.486  0.0000E+00  0.0000E+00  0.1212E+00  0.0000E+00
    -55.244  0.0000E+00  0.0000E+00  0.1212E+00  0.0000E+00
    -55.003  0.0000E+00  0.0000E+00  0.1212E+00  0.0000E+00
    -54.762  0.0000E+00  0.0000E+00  0.1212E+00  0.0000E+00
    -54.521  0.0000E+00  0.0000E+00  0.1212E+00  0.0000E+00
    -54.279  0.0000E+00  0.0000E+00  0.1212E+00  0.0000E+00
    -54.038  0.0000E+00  0.8273E-08  0.1212E+00  0.1996E-08
    -53.797  0.0000E+00  0.1727E+00  0.1212E+00  0.4167E-01
    -53.556  0.0000E+00  0.3018E+00  0.1212E+00  0.1145E+00
    -53.314  0.0000E+00  0.2795E-01  0.1212E+00  0.1212E+00
    -53.073  0.0000E+00  0.0000E+00  0.1212E+00  0.1212E+00
    -52.832  0.0000E+00  0.0000E+00  0.1212E+00  0.1212E+00
    -52.591  0.0000E+00  0.0000E+00  0.1212E+00  0.1212E+00
    -52.349  0.0000E+00  0.0000E+00  0.1212E+00  0.1212E+00
    -52.108  0.0000E+00  0.0000E+00  0.1212E+00  0.1212E+00
    -51.867  0.0000E+00  0.0000E+00  0.1212E+00  0.1212E+00
    -51.626  0.0000E+00  0.0000E+00  0.1212E+00  0.1212E+00
    -51.384  0.0000E+00  0.0000E+00  0.1212E+00  0.1212E+00
    -51.143  0.0000E+00  0.0000E+00  0.1212E+00  0.1212E+00
    -50.902  0.0000E+00  0.0000E+00  0.1212E+00  0.1212E+00
    -50.661  0.0000E+00  0.0000E+00  0.1212E+00  0.1212E+00
    -50.419  0.0000E+00  0.0000E+00  0.1212E+00  0.1212E+00
    -50.178  0.0000E+00  0.0000E+00  0.1212E+00  0.1212E+00
    -49.937  0.0000E+00  0.0000E+00  0.1212E+00  0.1212E+00
    -49.696  0.0000E+00  0.0000E+00  0.1212E+00  0.1212E+00
    -49.454  0.0000E+00  0.0000E+00  0.1212E+00  0.1212E+00
    -49.213  0.0000E+00  0.0000E+00  0.1212E+00  0.1212E+00
    -48.972  0.0000E+00  0.0000E+00  0.1212E+00  0.1212E+00
    -48.731  0.0000E+00  0.0000E+00  0.1212E+00  0.1212E+00
    -48.489  0.0000E+00  0.0000E+00  0.1212E+00  0.1212E+00
    -48.248  0.0000E+00  0.0000E+00  0.1212E+00  0.1212E+00
    -48.007  0.0000E+00  0.0000E+00  0.1212E+00  0.1212E+00
    -47.766  0.0000E+00  0.0000E+00  0.1212E+00  0.1212E+00
    -47.524  0.0000E+00  0.0000E+00  0.1212E+00  0.1212E+00
    -47.283  0.0000E+00  0.0000E+00  0.1212E+00  0.1212E+00
    -47.042  0.0000E+00  0.0000E+00  0.1212E+00  0.1212E+00
    -46.801  0.0000E+00  0.0000E+00  0.1212E+00  0.1212E+00
    -46.560  0.0000E+00  0.0000E+00  0.1212E+00  0.1212E+00
    -46.318  0.0000E+00  0.0000E+00  0.1212E+00  0.1212E+00
    -46.077  0.0000E+00  0.0000E+00  0.1212E+00  0.1212E+00
    -45.836  0.0000E+00  0.0000E+00  0.1212E+00  0.1212E+00
    -45.595  0.0000E+00  0.0000E+00  0.1212E+00  0.1212E+00
    -45.353  0.0000E+00  0.0000E+00  0.1212E+00  0.1212E+00
    -45.112  0.0000E+00  0.0000E+00  0.1212E+00  0.1212E+00
    -44.871  0.0000E+00  0.0000E+00  0.1212E+00  0.1212E+00
    -44.630  0.0000E+00  0.0000E+00  0.1212E+00  0.1212E+00
    -44.388  0.0000E+00  0.0000E+00  0.1212E+00  0.1212E+00
    -44.147  0.0000E+00  0.0000E+00  0.1212E+00  0.1212E+00
    -43.906  0.0000E+00  0.0000E+00  0.1212E+00  0.1212E+00
    -43.665  0.0000E+00  0.0000E+00  0.1212E+00  0.1212E+00
    -43.423  0.0000E+00  0.0000E+00  0.1212E+00  0.1212E+00
    -43.182  0.0000E+00  0.0000E+00  0.1212E+00  0.1212E+00
    -42.941  0.0000E+00  0.0000E+00  0.1212E+00  0.1212E+00
    -42.700  0.0000E+00  0.0000E+00  0.1212E+00  0.1212E+00
    -42.458  0.0000E+00  0.0000E+00  0.1212E+00  0.1212E+00
    -42.217  0.0000E+00  0.0000E+00  0.1212E+00  0.1212E+00
    -41.976  0.0000E+00  0.0000E+00  0.1212E+00  0.1212E+00
    -41.735  0.0000E+00  0.0000E+00  0.1212E+00  0.1212E+00
    -41.493  0.0000E+00  0.0000E+00  0.1212E+00  0.1212E+00
    -41.252  0.0000E+00  0.0000E+00  0.1212E+00  0.1212E+00
    -41.011  0.0000E+00  0.0000E+00  0.1212E+00  0.1212E+00
    -40.770  0.0000E+00  0.0000E+00  0.1212E+00  0.1212E+00
    -40.528  0.0000E+00  0.0000E+00  0.1212E+00  0.1212E+00
    -40.287  0.0000E+00  0.0000E+00  0.1212E+00  0.1212E+00
    -40.046  0.0000E+00  0.0000E+00  0.1212E+00  0.1212E+00
    -39.805  0.0000E+00  0.0000E+00  0.1212E+00  0.1212E+00
    -39.563  0.0000E+00  0.0000E+00  0.1212E+00  0.1212E+00
    -39.322  0.0000E+00  0.0000E+00  0.1212E+00  0.1212E+00
    -39.081  0.0000E+00  0.0000E+00  0.1212E+00  0.1212E+00
    -38.840  0.0000E+00  0.0000E+00  0.1212E+00  0.1212E+00
    -38.598  0.0000E+00  0.0000E+00  0.1212E+00  0.1212E+00
    -38.357  0.0000E+00  0.0000E+00  0.1212E+00  0.1212E+00
    -38.116  0.0000E+00  0.0000E+00  0.1212E+00  0.1212E+00
    -37.875  0.0000E+00  0.0000E+00  0.1212E+00  0.1212E+00
    -37.633  0.0000E+00  0.0000E+00  0.1212E+00  0.1212E+00
    -37.392  0.0000E+00  0.0000E+00  0.1212E+00  0.1212E+00
    -37.151  0.0000E+00  0.0000E+00  0.1212E+00  0.1212E+00
    -36.910  0.0000E+00  0.0000E+00  0.1212E+00  0.1212E+00
    -36.669  0.0000E+00  0.0000E+00  0.1212E+00  0.1212E+00
    -36.427  0.0000E+00  0.0000E+00  0.1212E+00  0.1212E+00
    -36.186  0.0000E+00  0.0000E+00  0.1212E+00  0.1212E+00
    -35.945  0.0000E+00  0.0000E+00  0.1212E+00  0.1212E+00
    -35.704  0.0000E+00  0.0000E+00  0.1212E+00  0.1212E+00
    -35.462  0.0000E+00  0.0000E+00  0.1212E+00  0.1212E+00
    -35.221  0.0000E+00  0.0000E+00  0.1212E+00  0.1212E+00
    -34.980  0.0000E+00  0.0000E+00  0.1212E+00  0.1212E+00
    -34.739  0.0000E+00  0.0000E+00  0.1212E+00  0.1212E+00
    -34.497  0.2429E-11  0.1001E-11  0.1212E+00  0.1212E+00
    -34.256  0.2319E-01  0.2105E-01  0.1268E+00  0.1263E+00
    -34.015  0.1868E-01  0.2082E-01  0.1313E+00  0.1313E+00
    -33.774  0.4298E-04  0.2926E-04  0.1313E+00  0.1313E+00
    -33.532  0.8344E-01  0.8306E-01  0.1515E+00  0.1514E+00
    -33.291  0.4213E-01  0.4252E-01  0.1616E+00  0.1616E+00
    -33.050  0.1277E-06  0.1861E-06  0.1616E+00  0.1616E+00
    -32.809  0.0000E+00  0.0000E+00  0.1616E+00  0.1616E+00
    -32.567  0.0000E+00  0.0000E+00  0.1616E+00  0.1616E+00
    -32.326  0.0000E+00  0.0000E+00  0.1616E+00  0.1616E+00
    -32.085  0.0000E+00  0.0000E+00  0.1616E+00  0.1616E+00
    -31.844  0.0000E+00  0.0000E+00  0.1616E+00  0.1616E+00
    -31.602  0.0000E+00  0.0000E+00  0.1616E+00  0.1616E+00
    -31.361  0.0000E+00  0.0000E+00  0.1616E+00  0.1616E+00
    -31.120  0.0000E+00  0.0000E+00  0.1616E+00  0.1616E+00
    -30.879  0.0000E+00  0.0000E+00  0.1616E+00  0.1616E+00
    -30.637  0.0000E+00  0.0000E+00  0.1616E+00  0.1616E+00
    -30.396  0.0000E+00  0.0000E+00  0.1616E+00  0.1616E+00
    -30.155  0.0000E+00  0.0000E+00  0.1616E+00  0.1616E+00
    -29.914  0.0000E+00  0.0000E+00  0.1616E+00  0.1616E+00
    -29.672  0.0000E+00  0.0000E+00  0.1616E+00  0.1616E+00
    -29.431  0.0000E+00  0.0000E+00  0.1616E+00  0.1616E+00
    -29.190  0.0000E+00  0.0000E+00  0.1616E+00  0.1616E+00
    -28.949  0.0000E+00  0.0000E+00  0.1616E+00  0.1616E+00
    -28.707  0.0000E+00  0.0000E+00  0.1616E+00  0.1616E+00
    -28.466  0.0000E+00  0.0000E+00  0.1616E+00  0.1616E+00
    -28.225  0.0000E+00  0.0000E+00  0.1616E+00  0.1616E+00
    -27.984  0.0000E+00  0.0000E+00  0.1616E+00  0.1616E+00
    -27.743  0.0000E+00  0.0000E+00  0.1616E+00  0.1616E+00
    -27.501  0.0000E+00  0.0000E+00  0.1616E+00  0.1616E+00
    -27.260  0.0000E+00  0.0000E+00  0.1616E+00  0.1616E+00
    -27.019  0.0000E+00  0.0000E+00  0.1616E+00  0.1616E+00
    -26.778  0.0000E+00  0.0000E+00  0.1616E+00  0.1616E+00
    -26.536  0.0000E+00  0.0000E+00  0.1616E+00  0.1616E+00
    -26.295  0.0000E+00  0.0000E+00  0.1616E+00  0.1616E+00
    -26.054  0.0000E+00  0.0000E+00  0.1616E+00  0.1616E+00
    -25.813  0.0000E+00  0.0000E+00  0.1616E+00  0.1616E+00
    -25.571  0.0000E+00  0.0000E+00  0.1616E+00  0.1616E+00
    -25.330  0.0000E+00  0.0000E+00  0.1616E+00  0.1616E+00
    -25.089  0.0000E+00  0.0000E+00  0.1616E+00  0.1616E+00
    -24.848  0.0000E+00  0.0000E+00  0.1616E+00  0.1616E+00
    -24.606  0.0000E+00  0.0000E+00  0.1616E+00  0.1616E+00
    -24.365  0.0000E+00  0.0000E+00  0.1616E+00  0.1616E+00
    -24.124  0.0000E+00  0.0000E+00  0.1616E+00  0.1616E+00
    -23.883  0.0000E+00  0.0000E+00  0.1616E+00  0.1616E+00
    -23.641  0.0000E+00  0.0000E+00  0.1616E+00  0.1616E+00
    -23.400  0.0000E+00  0.0000E+00  0.1616E+00  0.1616E+00
    -23.159  0.0000E+00  0.0000E+00  0.1616E+00  0.1616E+00
    -22.918  0.0000E+00  0.0000E+00  0.1616E+00  0.1616E+00
    -22.676  0.0000E+00  0.0000E+00  0.1616E+00  0.1616E+00
    -22.435  0.0000E+00  0.0000E+00  0.1616E+00  0.1616E+00
    -22.194  0.0000E+00  0.0000E+00  0.1616E+00  0.1616E+00
    -21.953  0.0000E+00  0.0000E+00  0.1616E+00  0.1616E+00
    -21.711  0.0000E+00  0.0000E+00  0.1616E+00  0.1616E+00
    -21.470  0.0000E+00  0.0000E+00  0.1616E+00  0.1616E+00
    -21.229  0.0000E+00  0.0000E+00  0.1616E+00  0.1616E+00
    -20.988  0.0000E+00  0.0000E+00  0.1616E+00  0.1616E+00
    -20.746  0.0000E+00  0.0000E+00  0.1616E+00  0.1616E+00
    -20.505  0.0000E+00  0.0000E+00  0.1616E+00  0.1616E+00
    -20.264  0.0000E+00  0.0000E+00  0.1616E+00  0.1616E+00
    -20.023  0.0000E+00  0.0000E+00  0.1616E+00  0.1616E+00
    -19.781  0.0000E+00  0.0000E+00  0.1616E+00  0.1616E+00
    -19.540  0.0000E+00  0.0000E+00  0.1616E+00  0.1616E+00
    -19.299  0.4679E-05  0.1761E-15  0.1616E+00  0.1616E+00
    -19.058  0.1823E-01  0.2340E-02  0.1660E+00  0.1622E+00
    -18.816  0.5498E-01  0.2323E-01  0.1793E+00  0.1678E+00
    -18.575  0.3909E-01  0.4769E-01  0.1887E+00  0.1793E+00
    -18.334  0.3382E-01  0.3413E-01  0.1969E+00  0.1875E+00
    -18.093  0.4944E-01  0.4191E-01  0.2088E+00  0.1976E+00
    -17.852  0.1421E+00  0.4477E-01  0.2431E+00  0.2084E+00
    -17.610  0.9309E-01  0.9017E-01  0.2655E+00  0.2302E+00
    -17.369  0.3844E-01  0.9073E-01  0.2748E+00  0.2521E+00
    -17.128  0.3280E-01  0.9647E-01  0.2827E+00  0.2753E+00
    -16.887  0.4218E-03  0.3057E-01  0.2828E+00  0.2827E+00
    -16.645  0.4498E-07  0.4371E-03  0.2828E+00  0.2828E+00
    -16.404  0.1084E-01  0.1010E-01  0.2854E+00  0.2853E+00
    -16.163  0.5694E-01  0.4543E-01  0.2992E+00  0.2962E+00
    -15.922  0.3678E-01  0.4853E-01  0.3081E+00  0.3079E+00
    -15.680  0.8051E-01  0.6382E-01  0.3275E+00  0.3233E+00
    -15.439  0.1979E+00  0.1859E+00  0.3752E+00  0.3682E+00
    -15.198  0.1162E+00  0.1278E+00  0.4032E+00  0.3990E+00
    -14.957  0.3374E-02  0.2087E-01  0.4040E+00  0.4040E+00
    -14.715  0.0000E+00  0.0000E+00  0.4040E+00  0.4040E+00
    -14.474  0.0000E+00  0.0000E+00  0.4040E+00  0.4040E+00
    -14.233  0.0000E+00  0.0000E+00  0.4040E+00  0.4040E+00
    -13.992  0.0000E+00  0.0000E+00  0.4040E+00  0.4040E+00
    -13.750  0.0000E+00  0.0000E+00  0.4040E+00  0.4040E+00
    -13.509  0.0000E+00  0.0000E+00  0.4040E+00  0.4040E+00
    -13.268  0.0000E+00  0.0000E+00  0.4040E+00  0.4040E+00
    -13.027  0.0000E+00  0.0000E+00  0.4040E+00  0.4040E+00
    -12.785  0.0000E+00  0.0000E+00  0.4040E+00  0.4040E+00
    -12.544  0.0000E+00  0.0000E+00  0.4040E+00  0.4040E+00
    -12.303  0.0000E+00  0.0000E+00  0.4040E+00  0.4040E+00
    -12.062  0.0000E+00  0.0000E+00  0.4040E+00  0.4040E+00
    -11.820  0.0000E+00  0.0000E+00  0.4040E+00  0.4040E+00
    -11.579  0.0000E+00  0.0000E+00  0.4040E+00  0.4040E+00
    -11.338  0.0000E+00  0.0000E+00  0.4040E+00  0.4040E+00
    -11.097  0.0000E+00  0.0000E+00  0.4040E+00  0.4040E+00
    -10.855  0.0000E+00  0.0000E+00  0.4040E+00  0.4040E+00
    -10.614  0.0000E+00  0.0000E+00  0.4040E+00  0.4040E+00
    -10.373  0.0000E+00  0.0000E+00  0.4040E+00  0.4040E+00
    -10.132  0.0000E+00  0.0000E+00  0.4040E+00  0.4040E+00
     -9.890  0.0000E+00  0.0000E+00  0.4040E+00  0.4040E+00
     -9.649  0.0000E+00  0.0000E+00  0.4040E+00  0.4040E+00
     -9.408  0.0000E+00  0.0000E+00  0.4040E+00  0.4040E+00
     -9.167  0.7581E-12  0.0000E+00  0.4040E+00  0.4040E+00
     -8.926  0.1504E-01  0.0000E+00  0.4077E+00  0.4040E+00
     -8.684  0.8825E-01  0.0000E+00  0.4290E+00  0.4040E+00
     -8.443  0.6469E-01  0.0000E+00  0.4446E+00  0.4040E+00
     -8.202  0.1388E+00  0.0000E+00  0.4781E+00  0.4040E+00
     -7.961  0.2523E+00  0.0000E+00  0.5389E+00  0.4040E+00
     -7.719  0.1629E+00  0.0000E+00  0.5782E+00  0.4040E+00
     -7.478  0.1075E-01  0.0000E+00  0.5808E+00  0.4040E+00
     -7.237  0.3009E-01  0.0000E+00  0.5881E+00  0.4040E+00
     -6.996  0.4315E-01  0.2410E-05  0.5985E+00  0.4040E+00
     -6.754  0.4308E-01  0.1049E-01  0.6089E+00  0.4066E+00
     -6.513  0.9289E-02  0.1047E-01  0.6111E+00  0.4091E+00
     -6.272  0.0000E+00  0.3080E-01  0.6111E+00  0.4165E+00
     -6.031  0.3198E-06  0.2839E-01  0.6111E+00  0.4234E+00
     -5.789  0.1044E-01  0.3181E-01  0.6136E+00  0.4310E+00
     -5.548  0.4188E-01  0.2769E-01  0.6237E+00  0.4377E+00
     -5.307  0.4648E-01  0.1767E-01  0.6349E+00  0.4420E+00
     -5.066  0.5867E-02  0.6533E-01  0.6364E+00  0.4578E+00
     -4.824  0.2020E-01  0.1516E+00  0.6412E+00  0.4943E+00
     -4.583  0.2142E-01  0.9479E-01  0.6464E+00  0.5172E+00
     -4.342  0.9328E-02  0.5528E-01  0.6487E+00  0.5305E+00
     -4.101  0.3319E-01  0.7786E-01  0.6567E+00  0.5493E+00
     -3.859  0.2123E-01  0.6601E-01  0.6618E+00  0.5652E+00
     -3.618  0.7417E-01  0.8120E-01  0.6797E+00  0.5848E+00
     -3.377  0.7878E-01  0.3347E-01  0.6987E+00  0.5929E+00
     -3.136  0.6454E-01  0.7855E-01  0.7143E+00  0.6119E+00
     -2.894  0.1890E+00  0.4713E-01  0.7598E+00  0.6232E+00
     -2.653  0.1130E+00  0.5142E-01  0.7871E+00  0.6356E+00
     -2.412  0.9384E-01  0.6078E-01  0.8097E+00  0.6503E+00
     -2.171  0.1235E+00  0.1356E+00  0.8395E+00  0.6830E+00
     -1.929  0.1058E+00  0.1268E+00  0.8650E+00  0.7136E+00
     -1.688  0.1261E+00  0.6668E-01  0.8955E+00  0.7297E+00
     -1.447  0.1246E+00  0.6102E-01  0.9255E+00  0.7444E+00
     -1.206  0.5212E-01  0.7308E-01  0.9381E+00  0.7620E+00
     -0.964  0.2470E-01  0.1293E-01  0.9440E+00  0.7652E+00
     -0.723  0.1707E-02  0.1056E-02  0.9444E+00  0.7654E+00
     -0.482  0.1190E-01  0.9412E-02  0.9473E+00  0.7677E+00
     -0.241  0.1952E-01  0.0000E+00  0.9520E+00  0.7677E+00
      0.001  0.5830E-01  0.0000E+00  0.9661E+00  0.7677E+00
      0.242  0.1493E-01  0.1119E-14  0.9697E+00  0.7677E+00
      0.483  0.2435E-05  0.3462E-02  0.9697E+00  0.7685E+00
      0.724  0.0000E+00  0.7000E-01  0.9697E+00  0.7854E+00
      0.965  0.0000E+00  0.6994E-01  0.9697E+00  0.8023E+00
      1.207  0.0000E+00  0.7353E-01  0.9697E+00  0.8200E+00
      1.448  0.0000E+00  0.1978E+00  0.9697E+00  0.8677E+00
      1.689  0.0000E+00  0.1679E+00  0.9697E+00  0.9082E+00
      1.930  0.4562E-04  0.9479E-01  0.9697E+00  0.9311E+00
      2.172  0.1042E-01  0.3820E-02  0.9722E+00  0.9320E+00
      2.413  0.1395E-06  0.2119E-01  0.9722E+00  0.9371E+00
      2.654  0.0000E+00  0.4092E-01  0.9722E+00  0.9470E+00
      2.895  0.3291E-06  0.2709E-01  0.9722E+00  0.9535E+00
      3.137  0.2085E-01  0.5918E-02  0.9773E+00  0.9550E+00
      3.378  0.8165E-04  0.1923E-01  0.9773E+00  0.9596E+00
      3.619  0.1743E-17  0.5311E-01  0.9773E+00  0.9724E+00
      3.860  0.1438E-02  0.1872E-01  0.9776E+00  0.9769E+00
      4.102  0.2997E-01  0.2233E-01  0.9848E+00  0.9823E+00
      4.343  0.0000E+00  0.9733E-04  0.9848E+00  0.9823E+00
      4.584  0.1550E-02  0.1061E-01  0.9852E+00  0.9849E+00
      4.825  0.3179E-01  0.3123E-01  0.9929E+00  0.9924E+00
      5.067  0.3875E-01  0.2013E-01  0.1002E+01  0.9973E+00
      5.308  0.3783E-01  0.2999E-01  0.1011E+01  0.1005E+01
      5.549  0.2615E-01  0.3297E-01  0.1018E+01  0.1012E+01
      5.790  0.1940E-01  0.2299E-01  0.1022E+01  0.1018E+01
      6.032  0.3816E-01  0.3084E-01  0.1032E+01  0.1025E+01
      6.273  0.2756E-01  0.3055E-01  0.1038E+01  0.1033E+01
      6.514  0.7024E-01  0.7171E-01  0.1055E+01  0.1050E+01
      6.755  0.5979E-01  0.5952E-01  0.1070E+01  0.1065E+01
      6.997  0.8595E-01  0.5778E-01  0.1090E+01  0.1078E+01
      7.238  0.4400E-01  0.6726E-01  0.1101E+01  0.1095E+01
      7.479  0.4219E-01  0.3888E-01  0.1111E+01  0.1104E+01
      7.720  0.2074E-04  0.2929E-01  0.1111E+01  0.1111E+01
      7.962  0.0000E+00  0.1477E-06  0.1111E+01  0.1111E+01
      8.203  0.0000E+00  0.0000E+00  0.1111E+01  0.1111E+01
      8.444  0.0000E+00  0.0000E+00  0.1111E+01  0.1111E+01
      8.685  0.0000E+00  0.0000E+00  0.1111E+01  0.1111E+01
      8.927  0.0000E+00  0.0000E+00  0.1111E+01  0.1111E+01
      9.168  0.0000E+00  0.0000E+00  0.1111E+01  0.1111E+01
      9.409  0.0000E+00  0.0000E+00  0.1111E+01  0.1111E+01
      9.650  0.0000E+00  0.0000E+00  0.1111E+01  0.1111E+01
      9.891  0.0000E+00  0.0000E+00  0.1111E+01  0.1111E+01
     10.133  0.0000E+00  0.0000E+00  0.1111E+01  0.1111E+01
     10.374  0.0000E+00  0.0000E+00  0.1111E+01  0.1111E+01
     10.615  0.0000E+00  0.0000E+00  0.1111E+01  0.1111E+01
     10.856  0.0000E+00  0.0000E+00  0.1111E+01  0.1111E+01
