 running on    8 total cores
 distrk:  each k-point on    8 cores,    1 groups
 distr:  one band on    4 cores,    2 groups
 using from now: INCAR     
 vasp.5.4.1 24Jun15 (build Jan 06 2016 13:10:00) complex                        
  
 POSCAR found type information on POSCAR  Sr Fe O 
 POSCAR found :  3 types and      20 ions
 scaLAPACK will be used

 ----------------------------------------------------------------------------- 
|                                                                             |
|           W    W    AA    RRRRR   N    N  II  N    N   GGGG   !!!           |
|           W    W   A  A   R    R  NN   N  II  NN   N  G    G  !!!           |
|           W    W  A    A  R    R  N N  N  II  N N  N  G       !!!           |
|           W WW W  AAAAAA  RRRRR   N  N N  II  N  N N  G  GGG   !            |
|           WW  WW  A    A  R   R   N   NN  II  N   NN  G    G                |
|           W    W  A    A  R    R  N    N  II  N    N   GGGG   !!!           |
|                                                                             |
|      For LVTOT=.TRUE. VASP.5.x writes the TOTAL local potential to          |
|      the file LOCPOT. If you want the Hartree contributions only, use       |
|      LVHAR=.TRUE. instead.                                                  |
|                                                                             |
 ----------------------------------------------------------------------------- 

 LDA part: xc-table for Ceperly-Alder, standard interpolation
 POSCAR found type information on POSCAR  Sr Fe O 
 POSCAR found :  3 types and      20 ions
 POSCAR, INCAR and KPOINTS ok, starting setup
 WARNING: small aliasing (wrap around) errors must be expected
 FFT: planning ...
 WAVECAR not read
 WARNING: chargedensity file is incomplete
 entering main loop
       N       E                     dE             d eps       ncg     rms          rms(c)
DAV:   1     0.144810426638E+04    0.14481E+04   -0.70667E+04  1488   0.106E+03
DAV:   2    -0.225227074964E+02   -0.14706E+04   -0.14000E+04  1390   0.381E+02
DAV:   3    -0.144708818373E+03   -0.12219E+03   -0.11997E+03  1560   0.119E+02
DAV:   4    -0.150229670888E+03   -0.55209E+01   -0.54927E+01  2048   0.254E+01
DAV:   5    -0.150671705511E+03   -0.44203E+00   -0.44178E+00  2314   0.433E+00    0.544E+01
RMM:   6    -0.237600972024E+03   -0.86929E+02   -0.57032E+02  1446   0.934E+01    0.875E+01
RMM:   7    -0.739011924189E+03   -0.50141E+03   -0.62851E+02  1609   0.508E+01    0.988E+01
RMM:   8    -0.158437448407E+03    0.58057E+03   -0.63322E+01  1333   0.288E+01    0.664E+01
RMM:   9    -0.122158883994E+03    0.36279E+02   -0.11147E+01  1349   0.130E+01    0.344E+01
RMM:  10    -0.121597342132E+03    0.56154E+00   -0.70628E+00  1365   0.925E+00    0.268E+01
RMM:  11    -0.124280266646E+03   -0.26829E+01   -0.17605E+00  1363   0.462E+00    0.244E+01
RMM:  12    -0.125250642634E+03   -0.97038E+00   -0.40810E+00  1335   0.678E+00    0.191E+01
RMM:  13    -0.123670395688E+03    0.15802E+01   -0.56504E+00  1356   0.710E+00    0.131E+01
RMM:  14    -0.123330952975E+03    0.33944E+00   -0.19246E+00  1370   0.476E+00    0.864E+00
RMM:  15    -0.123552228218E+03   -0.22128E+00   -0.34100E-01  1527   0.165E+00    0.728E+00
RMM:  16    -0.123690308126E+03   -0.13808E+00   -0.50785E-01  1387   0.233E+00    0.555E+00
RMM:  17    -0.123662078928E+03    0.28229E-01   -0.34991E-01  1359   0.210E+00    0.437E+00
RMM:  18    -0.123526564551E+03    0.13551E+00   -0.17917E-01  1382   0.123E+00    0.375E+00
RMM:  19    -0.123277682041E+03    0.24888E+00   -0.25330E-01  1343   0.162E+00    0.275E+00
RMM:  20    -0.123305537194E+03   -0.27855E-01   -0.75398E-02  1454   0.839E-01    0.235E+00
RMM:  21    -0.123527508483E+03   -0.22197E+00   -0.12900E-01  1356   0.104E+00    0.306E+00
RMM:  22    -0.123521403323E+03    0.61052E-02   -0.49277E-02  1388   0.616E-01    0.155E+00
RMM:  23    -0.123677259185E+03   -0.15586E+00   -0.50909E-02  1355   0.685E-01    0.221E+00
RMM:  24    -0.123698272157E+03   -0.21013E-01   -0.13387E-02  1390   0.298E-01    0.205E+00
RMM:  25    -0.123699013122E+03   -0.74096E-03   -0.33227E-02  1301   0.445E-01    0.186E+00
RMM:  26    -0.123701885356E+03   -0.28722E-02   -0.72064E-03  1260   0.306E-01    0.101E+00
RMM:  27    -0.123729277366E+03   -0.27392E-01   -0.66491E-03  1240   0.223E-01    0.777E-01
RMM:  28    -0.123779396208E+03   -0.50119E-01   -0.57821E-03  1250   0.217E-01    0.752E-01
RMM:  29    -0.123822940910E+03   -0.43545E-01   -0.69817E-03  1233   0.221E-01    0.556E-01
RMM:  30    -0.123889471661E+03   -0.66531E-01   -0.11041E-02  1290   0.277E-01    0.145E+00
RMM:  31    -0.123896661563E+03   -0.71899E-02   -0.61359E-03  1242   0.211E-01    0.119E+00
RMM:  32    -0.123913254074E+03   -0.16593E-01   -0.98470E-03  1250   0.245E-01    0.797E-01
RMM:  33    -0.123926576201E+03   -0.13322E-01   -0.51429E-03  1247   0.185E-01    0.964E-01
RMM:  34    -0.123924416499E+03    0.21597E-02   -0.19069E-03  1184   0.138E-01    0.396E-01
RMM:  35    -0.123933144834E+03   -0.87283E-02   -0.23152E-03  1191   0.137E-01    0.453E-01
RMM:  36    -0.123937933424E+03   -0.47886E-02   -0.14799E-03  1056   0.102E-01    0.153E-01
RMM:  37    -0.123945542377E+03   -0.76090E-02   -0.12406E-03  1074   0.848E-02    0.713E-01
RMM:  38    -0.123968686768E+03   -0.23144E-01   -0.19185E-03  1164   0.103E-01    0.171E+00
RMM:  39    -0.123958077386E+03    0.10609E-01   -0.76495E-04  1017   0.929E-02    0.146E+00
RMM:  40    -0.123951326113E+03    0.67513E-02   -0.22461E-04   854   0.398E-02    0.117E+00
RMM:  41    -0.123948310551E+03    0.30156E-02   -0.15603E-04   815   0.358E-02    0.897E-01
RMM:  42    -0.123946031375E+03    0.22792E-02   -0.53230E-04   983   0.547E-02    0.392E-01
RMM:  43    -0.123947637840E+03   -0.16065E-02   -0.33514E-04   904   0.555E-02    0.106E-01
RMM:  44    -0.123952877554E+03   -0.52397E-02   -0.70289E-04  1005   0.619E-02    0.557E-01
RMM:  45    -0.123951504843E+03    0.13727E-02   -0.36556E-04   918   0.675E-02    0.129E-01
RMM:  46    -0.123953276315E+03   -0.17715E-02   -0.14950E-04   812   0.357E-02    0.885E-02
RMM:  47    -0.123956592920E+03   -0.33166E-02   -0.19416E-04   840   0.314E-02    0.475E-01
RMM:  48    -0.123955739527E+03    0.85339E-03   -0.11359E-04   790   0.353E-02    0.213E-01
RMM:  49    -0.123956458980E+03   -0.71945E-03   -0.11458E-04   776   0.258E-02    0.115E-01
RMM:  50    -0.123957226459E+03   -0.76748E-03   -0.96796E-05   772   0.319E-02    0.207E-01
RMM:  51    -0.123957184856E+03    0.41603E-04   -0.84781E-05   772   0.273E-02
   1 F= -.12395718E+03 E0= -.12394835E+03  d E =-.123957E+03  mag=    17.3662
 curvature:   0.00 expect dE= 0.000E+00 dE for cont linesearch  0.000E+00
 trial: gam= 0.00000 g(F)=  0.185E+00 g(S)=  0.000E+00 ort = 0.000E+00 (trialstep = 0.100E+01)
 search vector abs. value=  0.185E+00
 bond charge predicted
       N       E                     dE             d eps       ncg     rms          rms(c)
DAV:   1    -0.123977151092E+03   -0.19925E-01   -0.17342E+01  1564   0.177E+01    0.158E+00
RMM:   2    -0.124277824010E+03   -0.30067E+00   -0.14542E+00  1499   0.319E+00    0.267E+00
RMM:   3    -0.124277620031E+03    0.20398E-03   -0.15852E-01  1349   0.135E+00    0.339E+00
RMM:   4    -0.124144174963E+03    0.13345E+00   -0.77963E-02  1400   0.764E-01    0.205E+00
RMM:   5    -0.124104066989E+03    0.40108E-01   -0.32335E-02  1338   0.498E-01    0.112E+00
RMM:   6    -0.124096985750E+03    0.70812E-02   -0.11622E-02  1324   0.283E-01    0.779E-01
RMM:   7    -0.124093920582E+03    0.30652E-02   -0.75541E-03  1294   0.214E-01    0.360E-01
RMM:   8    -0.124094913011E+03   -0.99243E-03   -0.34026E-03  1239   0.158E-01    0.458E-01
RMM:   9    -0.124095689982E+03   -0.77697E-03   -0.10895E-03  1083   0.965E-02    0.362E-01
RMM:  10    -0.124096266282E+03   -0.57630E-03   -0.16030E-03  1131   0.114E-01    0.191E-01
RMM:  11    -0.124096217673E+03    0.48609E-04   -0.10187E-03  1067   0.812E-02    0.304E-01
RMM:  12    -0.124096261471E+03   -0.43798E-04   -0.44717E-04   935   0.608E-02
   2 F= -.12409626E+03 E0= -.12408719E+03  d E =-.139077E+00  mag=    17.3716
 trial-energy change:   -0.139077  1 .order   -0.138873   -0.185342   -0.092404
 step:   1.9942(harm=  1.9942)  dis= 0.09999  next Energy=  -124.141994 (dE=-0.185E+00)
 bond charge predicted
       N       E                     dE             d eps       ncg     rms          rms(c)
DAV:   1    -0.124038018642E+03    0.58199E-01   -0.16782E+01  1484   0.175E+01    0.157E+00
RMM:   2    -0.124337527608E+03   -0.29951E+00   -0.12570E+00  1506   0.313E+00    0.279E+00
RMM:   3    -0.124299312604E+03    0.38215E-01   -0.14858E-01  1352   0.127E+00    0.324E+00
RMM:   4    -0.124179305223E+03    0.12001E+00   -0.62856E-02  1383   0.719E-01    0.204E+00
RMM:   5    -0.124141213452E+03    0.38092E-01   -0.31264E-02  1336   0.475E-01    0.930E-01
RMM:   6    -0.124138219295E+03    0.29942E-02   -0.12139E-02  1317   0.288E-01    0.663E-01
RMM:   7    -0.124137715467E+03    0.50383E-03   -0.56397E-03  1268   0.193E-01    0.415E-01
RMM:   8    -0.124137637737E+03    0.77730E-04   -0.33181E-03  1243   0.149E-01    0.272E-01
RMM:   9    -0.124138055395E+03   -0.41766E-03   -0.12165E-03  1104   0.983E-02    0.210E-01
RMM:  10    -0.124138504011E+03   -0.44862E-03   -0.77030E-04  1016   0.774E-02    0.146E-01
RMM:  11    -0.124138649205E+03   -0.14519E-03   -0.45486E-04   963   0.661E-02    0.154E-01
RMM:  12    -0.124138678654E+03   -0.29449E-04   -0.15810E-04   814   0.394E-02
   3 F= -.12413868E+03 E0= -.12412925E+03  d E =-.181494E+00  mag=    17.3724
 curvature:  -1.00 expect dE=-0.306E-01 dE for cont linesearch -0.760E-04
 trial: gam= 0.18562 g(F)=  0.306E-01 g(S)=  0.000E+00 ort =-0.376E-02 (trialstep = 0.120E+01)
 search vector abs. value=  0.356E-01
 bond charge predicted
       N       E                     dE             d eps       ncg     rms          rms(c)
DAV:   1    -0.123883995446E+03    0.25465E+00   -0.96258E+00  1680   0.273E+01    0.269E+00
RMM:   2    -0.124159055177E+03   -0.27506E+00   -0.24453E+00  1548   0.406E+00    0.150E+00
RMM:   3    -0.124337645669E+03   -0.17859E+00   -0.11052E-01  1352   0.108E+00    0.376E+00
RMM:   4    -0.124165211450E+03    0.17243E+00   -0.46625E-02  1402   0.543E-01    0.118E+00
RMM:   5    -0.124171489265E+03   -0.62778E-02   -0.14541E-02  1328   0.347E-01    0.125E+00
RMM:   6    -0.124156948356E+03    0.14541E-01   -0.68340E-03  1306   0.233E-01    0.545E-01
RMM:   7    -0.124152457518E+03    0.44908E-02   -0.36969E-03  1258   0.160E-01    0.258E-01
RMM:   8    -0.124152835955E+03   -0.37844E-03   -0.10946E-03  1114   0.101E-01    0.250E-01
RMM:   9    -0.124154476486E+03   -0.16405E-02   -0.47048E-04   938   0.612E-02    0.359E-01
RMM:  10    -0.124153768896E+03    0.70759E-03   -0.11276E-04   767   0.392E-02    0.361E-01
RMM:  11    -0.124155924970E+03   -0.21561E-02   -0.14661E-03  1033   0.919E-02    0.117E-01
RMM:  12    -0.124156526511E+03   -0.60154E-03   -0.10363E-03  1057   0.953E-02    0.142E-01
RMM:  13    -0.124156513548E+03    0.12963E-04   -0.24009E-04   861   0.470E-02
   4 F= -.12415651E+03 E0= -.12414709E+03  d E =-.178349E-01  mag=    17.3846
 trial-energy change:   -0.017835  1 .order   -0.020141   -0.035901   -0.004381
 step:   1.6020(harm=  1.3655)  dis= 0.05196  next Energy=  -124.157162 (dE=-0.185E-01)
 bond charge predicted
       N       E                     dE             d eps       ncg     rms          rms(c)
DAV:   1    -0.124123577447E+03    0.32949E-01   -0.10744E+00  1768   0.913E+00    0.916E-01
RMM:   2    -0.124156686657E+03   -0.33109E-01   -0.29353E-01  1477   0.135E+00    0.499E-01
RMM:   3    -0.124205451366E+03   -0.48765E-01   -0.15629E-02  1315   0.375E-01    0.184E+00
RMM:   4    -0.124154526097E+03    0.50925E-01   -0.70238E-03  1284   0.221E-01    0.323E-01
RMM:   5    -0.124156206205E+03   -0.16801E-02   -0.17400E-03  1151   0.123E-01    0.342E-01
RMM:   6    -0.124155892687E+03    0.31352E-03   -0.53159E-04   969   0.778E-02    0.128E-01
RMM:   7    -0.124155827359E+03    0.65328E-04   -0.25010E-04   875   0.519E-02
   5 F= -.12415583E+03 E0= -.12414655E+03  d E =-.171487E-01  mag=    17.3823
 curvature:   0.82 expect dE= 0.674E-02 dE for cont linesearch  0.102E-02
 ZBRENT: interpolating
 opt :   1.3419  next Energy=  -124.156775 (dE=-0.181E-01)
 bond charge predicted
       N       E                     dE             d eps       ncg     rms          rms(c)
DAV:   1    -0.124143731991E+03    0.12161E-01   -0.44998E-01  1746   0.588E+00    0.596E-01
RMM:   2    -0.124173863209E+03   -0.30131E-01   -0.12377E-01  1495   0.888E-01    0.150E+00
RMM:   3    -0.124196757899E+03   -0.22895E-01   -0.16144E-02  1302   0.341E-01    0.176E+00
RMM:   4    -0.124165403255E+03    0.31355E-01   -0.11480E-02  1273   0.292E-01    0.112E+00
RMM:   5    -0.124157740314E+03    0.76629E-02   -0.45639E-03  1223   0.182E-01    0.310E-01
RMM:   6    -0.124158369503E+03   -0.62919E-03   -0.12820E-03  1094   0.105E-01    0.223E-01
RMM:   7    -0.124158704854E+03   -0.33535E-03   -0.27453E-04   875   0.503E-02    0.952E-02
RMM:   8    -0.124159203111E+03   -0.49826E-03   -0.11659E-04   784   0.376E-02    0.805E-02
RMM:   9    -0.124159698152E+03   -0.49504E-03   -0.75871E-05   770   0.317E-02    0.271E-02
RMM:  10    -0.124159996642E+03   -0.29849E-03   -0.29910E-05   725   0.227E-02    0.312E-02
RMM:  11    -0.124160203870E+03   -0.20723E-03   -0.11918E-05   639   0.147E-02    0.151E-02
RMM:  12    -0.124160417367E+03   -0.21350E-03   -0.67989E-06   546   0.107E-02    0.243E-02
RMM:  13    -0.124160670111E+03   -0.25274E-03   -0.74696E-06   541   0.951E-03    0.170E-02
RMM:  14    -0.124160971689E+03   -0.30158E-03   -0.11678E-05   515   0.904E-03    0.120E-02
RMM:  15    -0.124161164605E+03   -0.19292E-03   -0.13040E-05   488   0.862E-03    0.863E-03
RMM:  16    -0.124161066161E+03    0.98443E-04   -0.14783E-05   534   0.885E-03
   6 F= -.12416107E+03 E0= -.12415165E+03  d E =-.223875E-01  mag=    17.3661
 curvature:  -0.21 expect dE=-0.114E-02 dE for cont linesearch -0.191E-05
 trial: gam= 0.12228 g(F)=  0.542E-02 g(S)=  0.000E+00 ort =-0.568E-03 (trialstep = 0.123E+01)
 search vector abs. value=  0.582E-02
 bond charge predicted
       N       E                     dE             d eps       ncg     rms          rms(c)
DAV:   1    -0.124151951454E+03    0.92132E-02   -0.12667E+00  1672   0.737E+00    0.546E-01
RMM:   2    -0.124167216561E+03   -0.15265E-01   -0.14006E-01  1534   0.117E+00    0.483E-01
RMM:   3    -0.124216643866E+03   -0.49427E-01   -0.13263E-02  1299   0.375E-01    0.225E+00
RMM:   4    -0.124163652085E+03    0.52992E-01   -0.76982E-03  1274   0.243E-01    0.407E-01
RMM:   5    -0.124166788797E+03   -0.31367E-02   -0.17492E-03  1154   0.143E-01    0.326E-01
RMM:   6    -0.124165558051E+03    0.12307E-02   -0.47615E-04   969   0.662E-02    0.118E-01
RMM:   7    -0.124165594662E+03   -0.36612E-04   -0.16070E-04   812   0.408E-02
   7 F= -.12416559E+03 E0= -.12415599E+03  d E =-.452850E-02  mag=    17.3704
 trial-energy change:   -0.004529  1 .order   -0.004970   -0.006569   -0.003370
 step:   2.5205(harm=  2.5205)  dis= 0.02058  next Energy=  -124.167811 (dE=-0.674E-02)
 bond charge predicted
       N       E                     dE             d eps       ncg     rms          rms(c)
DAV:   1    -0.124151015227E+03    0.14543E-01   -0.14005E+00  1688   0.784E+00    0.597E-01
RMM:   2    -0.124201039945E+03   -0.50025E-01   -0.16340E-01  1541   0.126E+00    0.162E+00
RMM:   3    -0.124202243076E+03   -0.12031E-02   -0.19619E-02  1296   0.441E-01    0.184E+00
RMM:   4    -0.124172077132E+03    0.30166E-01   -0.68160E-03  1271   0.282E-01    0.931E-01
RMM:   5    -0.124166913001E+03    0.51641E-02   -0.26488E-03  1195   0.150E-01    0.316E-01
RMM:   6    -0.124166675522E+03    0.23748E-03   -0.16125E-03  1108   0.111E-01    0.254E-01
RMM:   7    -0.124166557918E+03    0.11760E-03   -0.40090E-04   955   0.623E-02    0.188E-01
RMM:   8    -0.124166227269E+03    0.33065E-03   -0.34014E-04   950   0.487E-02    0.109E-01
RMM:   9    -0.124166010890E+03    0.21638E-03   -0.14305E-04   788   0.445E-02    0.107E-01
RMM:  10    -0.124166055930E+03   -0.45039E-04   -0.54163E-05   729   0.314E-02
   8 F= -.12416606E+03 E0= -.12415638E+03  d E =-.498977E-02  mag=    17.3782
 curvature:  -1.37 expect dE=-0.253E-02 dE for cont linesearch -0.193E-03
 ZBRENT: interpolating
 opt :   2.2001  next Energy=  -124.166201 (dE=-0.513E-02)
 bond charge predicted
       N       E                     dE             d eps       ncg     rms          rms(c)
DAV:   1    -0.124165105765E+03    0.90512E-03   -0.86965E-02  1604   0.192E+00    0.146E-01
RMM:   2    -0.124167850726E+03   -0.27450E-02   -0.10361E-02  1461   0.322E-01    0.482E-01
RMM:   3    -0.124167219489E+03    0.63124E-03   -0.81714E-04  1061   0.107E-01    0.485E-01
RMM:   4    -0.124166365264E+03    0.85423E-03   -0.46933E-04   925   0.755E-02    0.172E-01
RMM:   5    -0.124166206900E+03    0.15836E-03   -0.10200E-04   752   0.378E-02    0.366E-02
RMM:   6    -0.124166292375E+03   -0.85475E-04   -0.35320E-05   704   0.230E-02
   9 F= -.12416629E+03 E0= -.12415680E+03  d E =-.522621E-02  mag=    17.3801
 curvature:  -1.03 expect dE=-0.124E-02 dE for cont linesearch -0.170E-04
 ZBRENT: interpolating
 opt :   2.0502  next Energy=  -124.166318 (dE=-0.525E-02)
 bond charge predicted
       N       E                     dE             d eps       ncg     rms          rms(c)
DAV:   1    -0.124166198147E+03    0.87527E-05   -0.18434E-02  1600   0.920E-01    0.686E-02
RMM:   2    -0.124167282106E+03   -0.10840E-02   -0.22058E-03  1284   0.147E-01    0.323E-01
RMM:   3    -0.124166568567E+03    0.71354E-03   -0.19560E-04   824   0.557E-02    0.195E-01
RMM:   4    -0.124166700903E+03   -0.13234E-03   -0.14713E-04   785   0.431E-02    0.120E-01
RMM:   5    -0.124166597340E+03    0.10356E-03   -0.34875E-05   686   0.245E-02    0.176E-02
RMM:   6    -0.124166686557E+03   -0.89217E-04   -0.11307E-05   628   0.127E-02
  10 F= -.12416669E+03 E0= -.12415719E+03  d E =-.562040E-02  mag=    17.3813
 curvature:  -1.55 expect dE=-0.175E-02 dE for cont linesearch -0.452E-07
 trial: gam= 0.15600 g(F)=  0.113E-02 g(S)=  0.000E+00 ort =-0.130E-04 (trialstep = 0.139E+01)
 search vector abs. value=  0.127E-02
 bond charge predicted
       N       E                     dE             d eps       ncg     rms          rms(c)
DAV:   1    -0.124160114861E+03    0.64825E-02   -0.39163E-01  1666   0.513E+00    0.396E-01
RMM:   2    -0.124172521022E+03   -0.12406E-01   -0.71823E-02  1491   0.831E-01    0.764E-01
RMM:   3    -0.124198498614E+03   -0.25978E-01   -0.80931E-03  1258   0.291E-01    0.187E+00
RMM:   4    -0.124170270506E+03    0.28228E-01   -0.52280E-03  1234   0.220E-01    0.716E-01
RMM:   5    -0.124167449599E+03    0.28209E-02   -0.19146E-03  1161   0.133E-01    0.159E-01
RMM:   6    -0.124167483368E+03   -0.33769E-04   -0.57328E-04  1013   0.761E-02
  11 F= -.12416748E+03 E0= -.12415790E+03  d E =-.796811E-03  mag=    17.3824
 trial-energy change:   -0.000797  1 .order   -0.000906   -0.001569   -0.000242
 step:   1.6465(harm=  1.6465)  dis= 0.00533  next Energy=  -124.167614 (dE=-0.928E-03)
 bond charge predicted
       N       E                     dE             d eps       ncg     rms          rms(c)
DAV:   1    -0.124167178522E+03    0.27108E-03   -0.12660E-02  1616   0.943E-01    0.755E-02
RMM:   2    -0.124167298540E+03   -0.12002E-03   -0.23027E-03  1258   0.153E-01    0.758E-02
RMM:   3    -0.124167313976E+03   -0.15436E-04   -0.18965E-04   802   0.554E-02
  12 F= -.12416731E+03 E0= -.12415768E+03  d E =-.627419E-03  mag=    17.3817
 curvature:  -0.93 expect dE=-0.689E-03 dE for cont linesearch -0.148E-04
 trial: gam= 0.77987 g(F)=  0.745E-03 g(S)=  0.000E+00 ort =-0.142E-03 (trialstep = 0.141E+01)
 search vector abs. value=  0.129E-02
 bond charge predicted
       N       E                     dE             d eps       ncg     rms          rms(c)
DAV:   1    -0.124164277830E+03    0.30207E-02   -0.37306E-01  1536   0.381E+00    0.272E-01
RMM:   2    -0.124185723744E+03   -0.21446E-01   -0.38989E-02  1534   0.638E-01    0.157E+00
RMM:   3    -0.124167437817E+03    0.18286E-01   -0.43615E-03  1244   0.238E-01    0.561E-01
RMM:   4    -0.124168204285E+03   -0.76647E-03   -0.12974E-03  1105   0.135E-01    0.194E-01
RMM:   5    -0.124167874931E+03    0.32935E-03   -0.16400E-04   800   0.436E-02    0.896E-02
RMM:   6    -0.124167888667E+03   -0.13736E-04   -0.79212E-05   738   0.337E-02
  13 F= -.12416789E+03 E0= -.12415822E+03  d E =-.574690E-03  mag=    17.3808
 trial-energy change:   -0.000575  1 .order   -0.000560   -0.000896   -0.000225
 step:   1.8862(harm=  1.8862)  dis= 0.00802  next Energy=  -124.167912 (dE=-0.598E-03)
 bond charge predicted
       N       E                     dE             d eps       ncg     rms          rms(c)
DAV:   1    -0.124167596647E+03    0.27828E-03   -0.41070E-02  1624   0.128E+00    0.896E-02
RMM:   2    -0.124169637748E+03   -0.20411E-02   -0.39194E-03  1400   0.208E-01    0.477E-01
RMM:   3    -0.124168071520E+03    0.15662E-02   -0.43664E-04   966   0.830E-02    0.226E-01
RMM:   4    -0.124168180520E+03   -0.10900E-03   -0.18834E-04   805   0.538E-02    0.105E-01
RMM:   5    -0.124168085894E+03    0.94626E-04   -0.32986E-05   689   0.238E-02
  14 F= -.12416809E+03 E0= -.12415839E+03  d E =-.771918E-03  mag=    17.3787
 curvature:  -1.92 expect dE=-0.141E-02 dE for cont linesearch -0.823E-05
 trial: gam= 0.66725 g(F)=  0.732E-03 g(S)=  0.000E+00 ort =-0.744E-04 (trialstep = 0.151E+01)
 search vector abs. value=  0.121E-02
 bond charge predicted
       N       E                     dE             d eps       ncg     rms          rms(c)
DAV:   1    -0.124154246272E+03    0.13934E-01   -0.50656E-01  1760   0.745E+00    0.602E-01
RMM:   2    -0.124177908869E+03   -0.23663E-01   -0.12981E-01  1552   0.106E+00    0.107E+00
RMM:   3    -0.124236673421E+03   -0.58765E-01   -0.16792E-02  1301   0.380E-01    0.204E+00
RMM:   4    -0.124171292294E+03    0.65381E-01   -0.11140E-02  1278   0.294E-01    0.914E-01
RMM:   5    -0.124168374359E+03    0.29179E-02   -0.30510E-03  1190   0.153E-01    0.238E-01
RMM:   6    -0.124169163196E+03   -0.78884E-03   -0.11480E-03  1094   0.102E-01    0.209E-01
RMM:   7    -0.124169158205E+03    0.49904E-05   -0.19893E-04   843   0.453E-02
  15 F= -.12416916E+03 E0= -.12415941E+03  d E =-.107231E-02  mag=    17.3814
 trial-energy change:   -0.001072  1 .order   -0.000709   -0.001029   -0.000389
 step:   2.4254(harm=  2.4254)  dis= 0.01074  next Energy=  -124.168913 (dE=-0.827E-03)
 bond charge predicted
       N       E                     dE             d eps       ncg     rms          rms(c)
DAV:   1    -0.124163681309E+03    0.54819E-02   -0.18470E-01  1714   0.451E+00    0.375E-01
RMM:   2    -0.124191248282E+03   -0.27567E-01   -0.52600E-02  1544   0.681E-01    0.161E+00
RMM:   3    -0.124172790740E+03    0.18458E-01   -0.60795E-03  1252   0.254E-01    0.925E-01
RMM:   4    -0.124169006849E+03    0.37839E-02   -0.25486E-03  1189   0.177E-01    0.159E-01
RMM:   5    -0.124169168596E+03   -0.16175E-03   -0.38800E-04   910   0.641E-02    0.616E-02
RMM:   6    -0.124169173226E+03   -0.46308E-05   -0.67608E-05   723   0.305E-02
  16 F= -.12416917E+03 E0= -.12415942E+03  d E =-.108733E-02  mag=    17.3849
 curvature:  -2.15 expect dE=-0.132E-02 dE for cont linesearch -0.768E-05
 trial: gam= 0.87305 g(F)=  0.616E-03 g(S)=  0.000E+00 ort =-0.657E-04 (trialstep = 0.144E+01)
 search vector abs. value=  0.142E-02
 bond charge predicted
       N       E                     dE             d eps       ncg     rms          rms(c)
DAV:   1    -0.124163041883E+03    0.61267E-02   -0.41412E-01  1668   0.486E+00    0.397E-01
RMM:   2    -0.124174458522E+03   -0.11417E-01   -0.61100E-02  1510   0.776E-01    0.797E-01
RMM:   3    -0.124200361526E+03   -0.25903E-01   -0.75372E-03  1276   0.277E-01    0.187E+00
RMM:   4    -0.124172392110E+03    0.27969E-01   -0.51311E-03  1231   0.215E-01    0.771E-01
RMM:   5    -0.124169447585E+03    0.29445E-02   -0.18788E-03  1158   0.134E-01    0.185E-01
RMM:   6    -0.124169506910E+03   -0.59325E-04   -0.55539E-04  1009   0.743E-02
  17 F= -.12416951E+03 E0= -.12415959E+03  d E =-.333684E-03  mag=    17.3906
 trial-energy change:   -0.000334  1 .order   -0.000525   -0.000803   -0.000247
 step:   2.0751(harm=  2.0751)  dis= 0.00870  next Energy=  -124.169753 (dE=-0.580E-03)
 bond charge predicted
       N       E                     dE             d eps       ncg     rms          rms(c)
DAV:   1    -0.124168277853E+03    0.11697E-02   -0.81248E-02  1712   0.216E+00    0.181E-01
RMM:   2    -0.124173315523E+03   -0.50377E-02   -0.11868E-02  1484   0.350E-01    0.710E-01
RMM:   3    -0.124171128343E+03    0.21872E-02   -0.13677E-03  1135   0.133E-01    0.615E-01
RMM:   4    -0.124170324021E+03    0.80432E-03   -0.96803E-04  1038   0.105E-01    0.340E-01
RMM:   5    -0.124169494247E+03    0.82977E-03   -0.30379E-04   869   0.581E-02    0.824E-02
RMM:   6    -0.124169483076E+03    0.11171E-04   -0.84120E-05   733   0.332E-02
  18 F= -.12416948E+03 E0= -.12415954E+03  d E =-.309850E-03  mag=    17.3959
 curvature:  -2.64 expect dE=-0.182E-02 dE for cont linesearch -0.859E-05
 trial: gam= 0.95113 g(F)=  0.690E-03 g(S)=  0.000E+00 ort =-0.680E-04 (trialstep = 0.120E+01)
 search vector abs. value=  0.185E-02
 bond charge predicted
       N       E                     dE             d eps       ncg     rms          rms(c)
DAV:   1    -0.124166839996E+03    0.26543E-02   -0.32399E-01  1596   0.359E+00    0.270E-01
RMM:   2    -0.124170667530E+03   -0.38275E-02   -0.33492E-02  1456   0.621E-01    0.339E-01
RMM:   3    -0.124190047156E+03   -0.19380E-01   -0.40493E-03  1256   0.224E-01    0.140E+00
RMM:   4    -0.124169627722E+03    0.20419E-01   -0.27177E-03  1236   0.157E-01    0.426E-01
RMM:   5    -0.124170006295E+03   -0.37857E-03   -0.84619E-04  1038   0.950E-02    0.893E-02
RMM:   6    -0.124170093839E+03   -0.87544E-04   -0.23815E-04   837   0.513E-02
  19 F= -.12417009E+03 E0= -.12416010E+03  d E =-.610763E-03  mag=    17.4013
 trial-energy change:   -0.000611  1 .order   -0.000578   -0.000753   -0.000403
 step:   2.5912(harm=  2.5912)  dis= 0.01141  next Energy=  -124.170294 (dE=-0.811E-03)
 bond charge predicted
       N       E                     dE             d eps       ncg     rms          rms(c)
DAV:   1    -0.124165854456E+03    0.41518E-02   -0.42966E-01  1596   0.415E+00    0.317E-01
RMM:   2    -0.124172078935E+03   -0.62245E-02   -0.45030E-02  1484   0.715E-01    0.591E-01
RMM:   3    -0.124193267477E+03   -0.21189E-01   -0.52984E-03  1268   0.260E-01    0.147E+00
RMM:   4    -0.124170954793E+03    0.22313E-01   -0.38643E-03  1257   0.186E-01    0.630E-01
RMM:   5    -0.124170002160E+03    0.95263E-03   -0.13941E-03  1104   0.114E-01    0.142E-01
RMM:   6    -0.124170109775E+03   -0.10762E-03   -0.44761E-04   924   0.657E-02    0.138E-01
RMM:   7    -0.124170006355E+03    0.10342E-03   -0.12257E-04   761   0.399E-02    0.582E-02
RMM:   8    -0.124169996292E+03    0.10063E-04   -0.62001E-05   729   0.315E-02
  20 F= -.12417000E+03 E0= -.12415983E+03  d E =-.513215E-03  mag=    17.4129
 curvature:  -3.83 expect dE=-0.237E-02 dE for cont linesearch -0.307E-04
 trial: gam= 0.91912 g(F)=  0.618E-03 g(S)=  0.000E+00 ort =-0.122E-03 (trialstep = 0.140E+01)
 search vector abs. value=  0.196E-02
 bond charge predicted
       N       E                     dE             d eps       ncg     rms          rms(c)
DAV:   1    -0.124160358192E+03    0.96482E-02   -0.52429E-01  1606   0.560E+00    0.508E-01
RMM:   2    -0.124180780322E+03   -0.20422E-01   -0.92906E-02  1516   0.888E-01    0.125E+00
RMM:   3    -0.124205615675E+03   -0.24835E-01   -0.11393E-02  1298   0.330E-01    0.171E+00
RMM:   4    -0.124176070611E+03    0.29545E-01   -0.85722E-03  1255   0.259E-01    0.105E+00
RMM:   5    -0.124169924623E+03    0.61460E-02   -0.34321E-03  1201   0.165E-01    0.242E-01
RMM:   6    -0.124170238665E+03   -0.31404E-03   -0.98619E-04  1070   0.951E-02    0.176E-01
RMM:   7    -0.124170158884E+03    0.79782E-04   -0.24153E-04   868   0.520E-02
  21 F= -.12417016E+03 E0= -.12415983E+03  d E =-.162592E-03  mag=    17.4233
 trial-energy change:   -0.000163  1 .order   -0.000423   -0.000709   -0.000137
 step:   1.7341(harm=  1.7341)  dis= 0.00850  next Energy=  -124.170435 (dE=-0.439E-03)
 bond charge predicted
       N       E                     dE             d eps       ncg     rms          rms(c)
DAV:   1    -0.124169461712E+03    0.77695E-03   -0.29509E-02  1608   0.135E+00    0.146E-01
RMM:   2    -0.124189401204E+03   -0.19939E-01   -0.78267E-03  1454   0.258E-01    0.157E+00
RMM:   3    -0.124167543875E+03    0.21857E-01   -0.23747E-03  1163   0.157E-01    0.173E-01
RMM:   4    -0.124170903747E+03   -0.33599E-02   -0.93235E-04  1055   0.100E-01    0.370E-01
RMM:   5    -0.124169831958E+03    0.10718E-02   -0.30577E-04   892   0.638E-02    0.645E-02
RMM:   6    -0.124169810935E+03    0.21023E-04   -0.57226E-05   721   0.290E-02
  22 F= -.12416981E+03 E0= -.12415946E+03  d E =0.185357E-03  mag=    17.4311
 curvature:  -3.35 expect dE=-0.181E-02 dE for cont linesearch -0.726E-05
 trial: gam= 0.66485 g(F)=  0.541E-03 g(S)=  0.000E+00 ort =-0.651E-04 (trialstep = 0.147E+01)
 search vector abs. value=  0.132E-02
 bond charge predicted
       N       E                     dE             d eps       ncg     rms          rms(c)
DAV:   1    -0.124164944147E+03    0.48878E-02   -0.40964E-01  1596   0.460E+00    0.343E-01
RMM:   2    -0.124174534634E+03   -0.95905E-02   -0.51569E-02  1476   0.719E-01    0.751E-01
RMM:   3    -0.124192680176E+03   -0.18146E-01   -0.53850E-03  1270   0.249E-01    0.150E+00
RMM:   4    -0.124169717280E+03    0.22963E-01   -0.32752E-03  1231   0.178E-01    0.468E-01
RMM:   5    -0.124170044648E+03   -0.32737E-03   -0.90047E-04  1056   0.947E-02    0.111E-01
RMM:   6    -0.124170207479E+03   -0.16283E-03   -0.31319E-04   862   0.580E-02    0.854E-02
RMM:   7    -0.124170137461E+03    0.70018E-04   -0.76070E-05   741   0.305E-02
  23 F= -.12417014E+03 E0= -.12415981E+03  d E =-.326526E-03  mag=    17.4416
 trial-energy change:   -0.000327  1 .order   -0.000473   -0.000729   -0.000217
 step:   2.0892(harm=  2.0892)  dis= 0.00876  next Energy=  -124.170330 (dE=-0.519E-03)
 bond charge predicted
       N       E                     dE             d eps       ncg     rms          rms(c)
DAV:   1    -0.124169069385E+03    0.11381E-02   -0.71837E-02  1648   0.196E+00    0.149E-01
RMM:   2    -0.124171679100E+03   -0.26097E-02   -0.96753E-03  1431   0.316E-01    0.487E-01
RMM:   3    -0.124172484972E+03   -0.80587E-03   -0.93732E-04  1081   0.114E-01    0.649E-01
RMM:   4    -0.124169724047E+03    0.27609E-02   -0.56810E-04   965   0.880E-02    0.756E-02
RMM:   5    -0.124170060930E+03   -0.33688E-03   -0.11562E-04   752   0.429E-02    0.685E-02
RMM:   6    -0.124170051915E+03    0.90150E-05   -0.30119E-05   712   0.231E-02
  24 F= -.12417005E+03 E0= -.12415971E+03  d E =-.240980E-03  mag=    17.4482
 curvature:  -2.77 expect dE=-0.525E-03 dE for cont linesearch -0.364E-04
 ZBRENT: interpolating
 opt :   1.7963  next Energy=  -124.170071 (dE=-0.260E-03)
 bond charge predicted
       N       E                     dE             d eps       ncg     rms          rms(c)
DAV:   1    -0.124169854617E+03    0.20631E-03   -0.16818E-02  1610   0.916E-01    0.712E-02
RMM:   2    -0.124170090462E+03   -0.23585E-03   -0.20422E-03  1251   0.146E-01    0.390E-02
RMM:   3    -0.124170260177E+03   -0.16972E-03   -0.89943E-05   740   0.440E-02    0.174E-01
RMM:   4    -0.124170081913E+03    0.17826E-03   -0.31796E-05   701   0.227E-02    0.454E-02
RMM:   5    -0.124170138324E+03   -0.56411E-04   -0.19669E-05   662   0.172E-02
  25 F= -.12417014E+03 E0= -.12415979E+03  d E =-.327389E-03  mag=    17.4512
 curvature:  -1.47 expect dE=-0.181E-03 dE for cont linesearch -0.988E-05
 ZBRENT: bisectioning
 opt :   1.6316  next Energy=  -124.170152 (dE=-0.341E-03)
 bond charge predicted
       N       E                     dE             d eps       ncg     rms          rms(c)
DAV:   1    -0.124170096182E+03   -0.14269E-04   -0.51481E-03  1548   0.519E-01    0.421E-02
RMM:   2    -0.124171280289E+03   -0.11841E-02   -0.71109E-04  1164   0.874E-02    0.401E-01
RMM:   3    -0.124170026972E+03    0.12533E-02   -0.13024E-04   786   0.470E-02    0.795E-02
RMM:   4    -0.124170286902E+03   -0.25993E-03   -0.83016E-05   734   0.337E-02    0.834E-02
RMM:   5    -0.124170253135E+03    0.33767E-04   -0.15651E-05   668   0.175E-02
  26 F= -.12417025E+03 E0= -.12415991E+03  d E =-.442200E-03  mag=    17.4537
 curvature:  -2.05 expect dE=-0.164E-03 dE for cont linesearch -0.105E-05
 ZBRENT: interpolating
 opt :   1.5837  next Energy=  -124.170254 (dE=-0.443E-03)
 bond charge predicted
       N       E                     dE             d eps       ncg     rms          rms(c)
DAV:   1    -0.124170280228E+03    0.66740E-05   -0.44058E-04  1394   0.155E-01    0.147E-02
RMM:   2    -0.124170351685E+03   -0.71457E-04   -0.63770E-05   690   0.269E-02
  27 F= -.12417035E+03 E0= -.12415999E+03  d E =-.540750E-03  mag=    17.4546
 curvature:  -1.50 expect dE=-0.122E-03 dE for cont linesearch -0.891E-07
 trial: gam= 0.20173 g(F)=  0.810E-04 g(S)=  0.000E+00 ort = 0.884E-05 (trialstep = 0.149E+01)
 search vector abs. value=  0.138E-03
 bond charge predicted
       N       E                     dE             d eps       ncg     rms          rms(c)
DAV:   1    -0.124169914603E+03    0.36563E-03   -0.43180E-02  1580   0.128E+00    0.123E-01
RMM:   2    -0.124180864694E+03   -0.10950E-01   -0.62981E-03  1439   0.243E-01    0.124E+00
RMM:   3    -0.124168909173E+03    0.11956E-01   -0.15197E-03  1111   0.129E-01    0.158E-01
RMM:   4    -0.124170828142E+03   -0.19190E-02   -0.48596E-04   912   0.788E-02    0.196E-01
RMM:   5    -0.124170543566E+03    0.28458E-03   -0.75249E-05   732   0.377E-02    0.506E-02
RMM:   6    -0.124170572149E+03   -0.28583E-04   -0.19297E-05   678   0.168E-02
  28 F= -.12417057E+03 E0= -.12416023E+03  d E =-.220464E-03  mag=    17.4580
 trial-energy change:   -0.000220  1 .order   -0.000099   -0.000123   -0.000075
 step:   3.7730(harm=  3.7730)  dis= 0.00452  next Energy=  -124.170508 (dE=-0.156E-03)
 bond charge predicted
       N       E                     dE             d eps       ncg     rms          rms(c)
DAV:   1    -0.124169423486E+03    0.11201E-02   -0.10041E-01  1556   0.196E+00    0.164E-01
RMM:   2    -0.124172691817E+03   -0.32683E-02   -0.12134E-02  1425   0.340E-01    0.571E-01
RMM:   3    -0.124173502607E+03   -0.81079E-03   -0.12648E-03  1131   0.128E-01    0.702E-01
RMM:   4    -0.124170473284E+03    0.30293E-02   -0.82526E-04  1004   0.996E-02    0.159E-01
RMM:   5    -0.124170810876E+03   -0.33759E-03   -0.20746E-04   796   0.497E-02    0.846E-02
RMM:   6    -0.124170775605E+03    0.35270E-04   -0.51825E-05   717   0.284E-02
  29 F= -.12417078E+03 E0= -.12416043E+03  d E =-.423920E-03  mag=    17.4611
 curvature:  -3.15 expect dE=-0.282E-04 dE for cont linesearch -0.782E-05
 trial: gam= 0.01178 g(F)=  0.894E-05 g(S)=  0.000E+00 ort = 0.185E-04 (trialstep = 0.195E+01)
 search vector abs. value=  0.940E-05
 reached required accuracy - stopping structural energy minimisation
 running on    8 total cores
 distrk:  each k-point on    8 cores,    1 groups
 distr:  one band on    4 cores,    2 groups
 using from now: INCAR     
 vasp.5.4.1 24Jun15 (build Jan 06 2016 13:10:00) complex                        
  
 POSCAR found type information on POSCAR  Sr Fe O 
 POSCAR found :  3 types and      20 ions
 scaLAPACK will be used

 ----------------------------------------------------------------------------- 
|                                                                             |
|           W    W    AA    RRRRR   N    N  II  N    N   GGGG   !!!           |
|           W    W   A  A   R    R  NN   N  II  NN   N  G    G  !!!           |
|           W    W  A    A  R    R  N N  N  II  N N  N  G       !!!           |
|           W WW W  AAAAAA  RRRRR   N  N N  II  N  N N  G  GGG   !            |
|           WW  WW  A    A  R   R   N   NN  II  N   NN  G    G                |
|           W    W  A    A  R    R  N    N  II  N    N   GGGG   !!!           |
|                                                                             |
|      For LVTOT=.TRUE. VASP.5.x writes the TOTAL local potential to          |
|      the file LOCPOT. If you want the Hartree contributions only, use       |
|      LVHAR=.TRUE. instead.                                                  |
|                                                                             |
 ----------------------------------------------------------------------------- 

 LDA part: xc-table for Ceperly-Alder, standard interpolation
 POSCAR found type information on POSCAR  Sr Fe O 
 POSCAR found :  3 types and      20 ions
 POSCAR, INCAR and KPOINTS ok, starting setup
 WARNING: small aliasing (wrap around) errors must be expected
 FFT: planning ...
 WAVECAR not read
 WARNING: chargedensity file is incomplete
 entering main loop
       N       E                     dE             d eps       ncg     rms          rms(c)
DAV:   1     0.144873145575E+04    0.14487E+04   -0.70767E+04  1496   0.106E+03
DAV:   2    -0.222985914785E+02   -0.14710E+04   -0.13991E+04  1382   0.382E+02
DAV:   3    -0.144618548656E+03   -0.12232E+03   -0.12011E+03  1560   0.119E+02
DAV:   4    -0.150150186932E+03   -0.55316E+01   -0.55034E+01  2024   0.254E+01
DAV:   5    -0.150622741770E+03   -0.47255E+00   -0.47225E+00  2288   0.441E+00    0.545E+01
RMM:   6    -0.272345721132E+03   -0.12172E+03   -0.58866E+02  1444   0.940E+01    0.909E+01
RMM:   7    -0.739303937570E+03   -0.46696E+03   -0.63120E+02  1616   0.498E+01    0.977E+01
RMM:   8    -0.184114344485E+03    0.55519E+03   -0.64950E+01  1338   0.295E+01    0.754E+01
RMM:   9    -0.122886335492E+03    0.61228E+02   -0.15591E+01  1337   0.157E+01    0.360E+01
RMM:  10    -0.121023893128E+03    0.18624E+01   -0.67273E+00  1362   0.926E+00    0.273E+01
RMM:  11    -0.123934607120E+03   -0.29107E+01   -0.19615E+00  1351   0.503E+00    0.250E+01
RMM:  12    -0.124619491557E+03   -0.68488E+00   -0.41526E+00  1333   0.688E+00    0.204E+01
RMM:  13    -0.122941219004E+03    0.16783E+01   -0.52505E+00  1355   0.685E+00    0.131E+01
RMM:  14    -0.123336250742E+03   -0.39503E+00   -0.10307E+00  1357   0.370E+00    0.101E+01
RMM:  15    -0.123697214589E+03   -0.36096E+00   -0.24865E-01  1502   0.163E+00    0.876E+00
RMM:  16    -0.124162328929E+03   -0.46511E+00   -0.10255E+00  1345   0.313E+00    0.717E+00
RMM:  17    -0.123809260277E+03    0.35307E+00   -0.89312E-01  1398   0.285E+00    0.539E+00
RMM:  18    -0.123692182316E+03    0.11708E+00   -0.24903E-01  1465   0.144E+00    0.497E+00
RMM:  19    -0.123598438005E+03    0.93744E-01   -0.12233E-01  1391   0.107E+00    0.398E+00
RMM:  20    -0.123549843620E+03    0.48594E-01   -0.13864E-01  1349   0.134E+00    0.273E+00
RMM:  21    -0.123595659115E+03   -0.45815E-01   -0.57707E-02  1413   0.807E-01    0.198E+00
RMM:  22    -0.123701537052E+03   -0.10588E+00   -0.81412E-02  1347   0.821E-01    0.156E+00
RMM:  23    -0.123833103800E+03   -0.13157E+00   -0.59685E-02  1353   0.697E-01    0.143E+00
RMM:  24    -0.123915200627E+03   -0.82097E-01   -0.21403E-02  1415   0.365E-01    0.183E+00
RMM:  25    -0.124097982762E+03   -0.18278E+00   -0.18456E-02  1324   0.354E-01    0.326E+00
RMM:  26    -0.124062027387E+03    0.35955E-01   -0.47596E-03  1257   0.203E-01    0.296E+00
RMM:  27    -0.124087974549E+03   -0.25947E-01   -0.11641E-03  1137   0.917E-02    0.311E+00
RMM:  28    -0.124166287932E+03   -0.78313E-01   -0.12467E-02  1275   0.332E-01    0.357E+00
RMM:  29    -0.123946205193E+03    0.22008E+00   -0.54595E-02  1310   0.548E-01    0.172E+00
RMM:  30    -0.124091652334E+03   -0.14545E+00   -0.34831E-02  1340   0.521E-01    0.279E+00
RMM:  31    -0.124142753890E+03   -0.51102E-01   -0.16002E-02  1324   0.340E-01    0.352E+00
RMM:  32    -0.124137775798E+03    0.49781E-02   -0.37084E-03  1279   0.184E-01    0.355E+00
RMM:  33    -0.124099120308E+03    0.38655E-01   -0.19424E-03  1258   0.117E-01    0.301E+00
RMM:  34    -0.124102745731E+03   -0.36254E-02   -0.68231E-03  1247   0.220E-01    0.323E+00
RMM:  35    -0.124068812077E+03    0.33934E-01   -0.93687E-03  1271   0.266E-01    0.298E+00
RMM:  36    -0.123995119547E+03    0.73693E-01   -0.23107E-02  1299   0.375E-01    0.216E+00
RMM:  37    -0.124009313154E+03   -0.14194E-01   -0.48406E-03  1232   0.244E-01    0.193E+00
RMM:  38    -0.124014854155E+03   -0.55410E-02   -0.77301E-03  1257   0.257E-01    0.180E+00
RMM:  39    -0.124024577527E+03   -0.97234E-02   -0.70302E-03  1269   0.243E-01    0.131E+00
RMM:  40    -0.124027440491E+03   -0.28630E-02   -0.56011E-03  1235   0.208E-01    0.125E+00
RMM:  41    -0.124028603633E+03   -0.11631E-02   -0.59433E-03  1238   0.207E-01    0.149E+00
RMM:  42    -0.124028770674E+03   -0.16704E-03   -0.57006E-03  1247   0.195E-01    0.171E+00
RMM:  43    -0.124028220847E+03    0.54983E-03   -0.12860E-03  1120   0.105E-01    0.173E+00
RMM:  44    -0.124025477916E+03    0.27429E-02   -0.75818E-04  1081   0.739E-02    0.175E+00
RMM:  45    -0.124027078159E+03   -0.16002E-02   -0.12162E-04   794   0.414E-02    0.174E+00
RMM:  46    -0.124061643583E+03   -0.34565E-01   -0.17106E-02  1250   0.316E-01    0.127E+00
RMM:  47    -0.124098526594E+03   -0.36883E-01   -0.22438E-02  1269   0.371E-01    0.166E+00
RMM:  48    -0.124115313741E+03   -0.16787E-01   -0.10032E-02  1194   0.253E-01    0.156E+00
RMM:  49    -0.124124897770E+03   -0.95840E-02   -0.51955E-03  1129   0.167E-01    0.143E+00
RMM:  50    -0.124129579684E+03   -0.46819E-02   -0.60021E-03  1195   0.174E-01    0.116E+00
RMM:  51    -0.124124992250E+03    0.45874E-02   -0.25021E-03  1177   0.139E-01    0.108E+00
RMM:  52    -0.124126655911E+03   -0.16637E-02   -0.62288E-03  1229   0.192E-01    0.599E-01
RMM:  53    -0.124136271638E+03   -0.96157E-02   -0.43092E-03  1218   0.181E-01    0.780E-01
RMM:  54    -0.124148128128E+03   -0.11856E-01   -0.37924E-03  1174   0.165E-01    0.120E+00
RMM:  55    -0.124152163552E+03   -0.40354E-02   -0.29982E-04   943   0.607E-02    0.140E+00
RMM:  56    -0.124171690481E+03   -0.19527E-01   -0.28258E-03  1144   0.123E-01    0.202E+00
RMM:  57    -0.124163095045E+03    0.85954E-02   -0.17164E-03  1063   0.107E-01    0.180E+00
RMM:  58    -0.124163620837E+03   -0.52579E-03   -0.17952E-03  1060   0.981E-02    0.169E+00
RMM:  59    -0.124159792309E+03    0.38285E-02   -0.22423E-03  1086   0.109E-01    0.148E+00
RMM:  60    -0.124154938490E+03    0.48538E-02   -0.44596E-04   911   0.592E-02    0.133E+00
RMM:  61    -0.124148655442E+03    0.62830E-02   -0.12964E-03  1088   0.766E-02    0.100E+00
RMM:  62    -0.124150828123E+03   -0.21727E-02   -0.32281E-04   917   0.608E-02    0.934E-01
RMM:  63    -0.124153184703E+03   -0.23566E-02   -0.52760E-04   991   0.604E-02    0.777E-01
RMM:  64    -0.124159521342E+03   -0.63366E-02   -0.16713E-03  1124   0.109E-01    0.282E-01
RMM:  65    -0.124168383738E+03   -0.88624E-02   -0.11548E-03  1027   0.913E-02    0.561E-01
RMM:  66    -0.124168571422E+03   -0.18768E-03   -0.13049E-03  1086   0.113E-01    0.791E-01
RMM:  67    -0.124170493022E+03   -0.19216E-02   -0.24333E-04   883   0.528E-02    0.948E-01
RMM:  68    -0.124172192490E+03   -0.16995E-02   -0.21048E-04   815   0.420E-02    0.101E+00
RMM:  69    -0.124172443344E+03   -0.25085E-03   -0.40661E-04   820   0.476E-02    0.914E-01
RMM:  70    -0.124172586469E+03   -0.14312E-03   -0.40492E-04   832   0.463E-02    0.811E-01
RMM:  71    -0.124170920418E+03    0.16661E-02   -0.50431E-04   890   0.465E-02    0.561E-01
RMM:  72    -0.124170282049E+03    0.63837E-03   -0.36792E-04   859   0.446E-02    0.345E-01
RMM:  73    -0.124170425158E+03   -0.14311E-03   -0.14721E-04   784   0.324E-02    0.141E-01
RMM:  74    -0.124170959898E+03   -0.53474E-03   -0.93289E-05   775   0.326E-02    0.169E-01
RMM:  75    -0.124170917794E+03    0.42104E-04   -0.58542E-05   692   0.202E-02
   1 F= -.12417092E+03 E0= -.12416066E+03  d E =-.124171E+03  mag=    17.5055
 curvature:   0.00 expect dE= 0.000E+00 dE for cont linesearch  0.000E+00
 trial: gam= 0.00000 g(F)=  0.360E-04 g(S)=  0.000E+00 ort = 0.000E+00 (trialstep = 0.100E+01)
 search vector abs. value=  0.360E-04
 bond charge predicted
       N       E                     dE             d eps       ncg     rms          rms(c)
DAV:   1    -0.124170862094E+03    0.97804E-04   -0.54394E-03  1644   0.606E-01    0.964E-02
RMM:   2    -0.124173036025E+03   -0.21739E-02   -0.15990E-03  1308   0.125E-01    0.526E-01
RMM:   3    -0.124172866172E+03    0.16985E-03   -0.66756E-04  1031   0.768E-02    0.632E-01
RMM:   4    -0.124172598209E+03    0.26796E-03   -0.38288E-04   901   0.775E-02    0.565E-01
RMM:   5    -0.124170593854E+03    0.20044E-02   -0.12786E-04   786   0.397E-02    0.272E-01
RMM:   6    -0.124170545075E+03    0.48779E-04   -0.84909E-05   755   0.316E-02
   2 F= -.12417055E+03 E0= -.12416016E+03  d E =0.372719E-03  mag=    17.5010
 trial-energy change:    0.000373  1 .order   -0.000011   -0.000036    0.000014
 step:   0.7134(harm=  0.7134)  dis= 0.00048  next Energy=  -124.170931 (dE=-0.129E-04)
 bond charge predicted
       N       E                     dE             d eps       ncg     rms          rms(c)
DAV:   1    -0.124170378916E+03    0.21494E-03   -0.67968E-04  1458   0.194E-01    0.533E-02
RMM:   2    -0.124171050365E+03   -0.67145E-03   -0.42621E-04  1026   0.564E-02    0.397E-01
RMM:   3    -0.124170921094E+03    0.12927E-03   -0.29541E-04   863   0.503E-02    0.312E-01
RMM:   4    -0.124170301301E+03    0.61979E-03   -0.16270E-04   786   0.479E-02    0.965E-02
RMM:   5    -0.124170251390E+03    0.49910E-04   -0.11574E-05   650   0.151E-02
   3 F= -.12417025E+03 E0= -.12415992E+03  d E =0.666404E-03  mag=    17.4958
 curvature:  -0.36 expect dE=-0.259E-05 dE for cont linesearch -0.365E-08
 trial: gam= 0.18429 g(F)=  0.725E-05 g(S)=  0.000E+00 ort = 0.607E-06 (trialstep = 0.943E+00)
 search vector abs. value=  0.870E-05
 reached required accuracy - stopping structural energy minimisation
 running on    8 total cores
 distrk:  each k-point on    8 cores,    1 groups
 distr:  one band on    4 cores,    2 groups
 using from now: INCAR     
 vasp.5.4.1 24Jun15 (build Jan 06 2016 13:10:00) complex                        
  
 POSCAR found type information on POSCAR  Sr Fe O 
 POSCAR found :  3 types and      20 ions
 scaLAPACK will be used

 ----------------------------------------------------------------------------- 
|                                                                             |
|           W    W    AA    RRRRR   N    N  II  N    N   GGGG   !!!           |
|           W    W   A  A   R    R  NN   N  II  NN   N  G    G  !!!           |
|           W    W  A    A  R    R  N N  N  II  N N  N  G       !!!           |
|           W WW W  AAAAAA  RRRRR   N  N N  II  N  N N  G  GGG   !            |
|           WW  WW  A    A  R   R   N   NN  II  N   NN  G    G                |
|           W    W  A    A  R    R  N    N  II  N    N   GGGG   !!!           |
|                                                                             |
|      For LVTOT=.TRUE. VASP.5.x writes the TOTAL local potential to          |
|      the file LOCPOT. If you want the Hartree contributions only, use       |
|      LVHAR=.TRUE. instead.                                                  |
|                                                                             |
 ----------------------------------------------------------------------------- 

 LDA part: xc-table for Ceperly-Alder, standard interpolation
 POSCAR found type information on POSCAR  Sr Fe O 
 POSCAR found :  3 types and      20 ions
 POSCAR, INCAR and KPOINTS ok, starting setup
 WARNING: small aliasing (wrap around) errors must be expected
 FFT: planning ...
 WAVECAR not read
 WARNING: chargedensity file is incomplete
 entering main loop
       N       E                     dE             d eps       ncg     rms          rms(c)
DAV:   1     0.144872237962E+04    0.14487E+04   -0.70767E+04  1496   0.106E+03
DAV:   2    -0.223009984431E+02   -0.14710E+04   -0.13991E+04  1382   0.382E+02
DAV:   3    -0.144618980588E+03   -0.12232E+03   -0.12011E+03  1560   0.119E+02
DAV:   4    -0.150150435973E+03   -0.55315E+01   -0.55033E+01  2024   0.254E+01
DAV:   5    -0.150622994756E+03   -0.47256E+00   -0.47225E+00  2288   0.441E+00    0.545E+01
RMM:   6    -0.272181153756E+03   -0.12156E+03   -0.58840E+02  1445   0.940E+01    0.909E+01
RMM:   7    -0.739402868857E+03   -0.46722E+03   -0.63120E+02  1616   0.498E+01    0.977E+01
RMM:   8    -0.184022791939E+03    0.55538E+03   -0.65084E+01  1340   0.295E+01    0.754E+01
RMM:   9    -0.122869292467E+03    0.61153E+02   -0.15550E+01  1336   0.157E+01    0.360E+01
RMM:  10    -0.121025617776E+03    0.18437E+01   -0.67261E+00  1362   0.926E+00    0.273E+01
RMM:  11    -0.123930851727E+03   -0.29052E+01   -0.19704E+00  1351   0.504E+00    0.250E+01
RMM:  12    -0.124597411631E+03   -0.66656E+00   -0.40915E+00  1333   0.683E+00    0.204E+01
RMM:  13    -0.122927203776E+03    0.16702E+01   -0.53070E+00  1354   0.689E+00    0.131E+01
RMM:  14    -0.123346549046E+03   -0.41935E+00   -0.10055E+00  1356   0.367E+00    0.101E+01
RMM:  15    -0.123698441562E+03   -0.35189E+00   -0.25508E-01  1499   0.165E+00    0.878E+00
RMM:  16    -0.124152404486E+03   -0.45396E+00   -0.10123E+00  1347   0.312E+00    0.714E+00
RMM:  17    -0.123808616237E+03    0.34379E+00   -0.90083E-01  1394   0.285E+00    0.540E+00
RMM:  18    -0.123687732464E+03    0.12088E+00   -0.24960E-01  1464   0.145E+00    0.497E+00
RMM:  19    -0.123592456067E+03    0.95276E-01   -0.12357E-01  1389   0.108E+00    0.398E+00
RMM:  20    -0.123544688669E+03    0.47767E-01   -0.13718E-01  1351   0.134E+00    0.273E+00
RMM:  21    -0.123596515333E+03   -0.51827E-01   -0.58120E-02  1411   0.810E-01    0.198E+00
RMM:  22    -0.123698554164E+03   -0.10204E+00   -0.84097E-02  1346   0.839E-01    0.156E+00
RMM:  23    -0.123965841246E+03   -0.26729E+00   -0.73773E-02  1357   0.785E-01    0.280E+00
RMM:  24    -0.123876578239E+03    0.89263E-01   -0.93796E-03  1357   0.293E-01    0.207E+00
RMM:  25    -0.123859527827E+03    0.17050E-01   -0.15031E-03  1261   0.932E-02    0.176E+00
RMM:  26    -0.123913855961E+03   -0.54328E-01   -0.16771E-02  1300   0.424E-01    0.170E+00
RMM:  27    -0.124026993936E+03   -0.11314E+00   -0.14571E-02  1297   0.388E-01    0.249E+00
RMM:  28    -0.123989769342E+03    0.37225E-01   -0.83789E-03  1276   0.268E-01    0.158E+00
RMM:  29    -0.124023700796E+03   -0.33931E-01   -0.19349E-03  1179   0.138E-01    0.198E+00
RMM:  30    -0.124025873580E+03   -0.21728E-02   -0.18964E-02  1296   0.333E-01    0.170E+00
RMM:  31    -0.124022595262E+03    0.32783E-02   -0.59987E-03  1252   0.247E-01    0.103E+00
RMM:  32    -0.124087578869E+03   -0.64984E-01   -0.65646E-03  1278   0.219E-01    0.164E+00
RMM:  33    -0.124103681595E+03   -0.16103E-01   -0.92840E-03  1276   0.295E-01    0.118E+00
RMM:  34    -0.124112874390E+03   -0.91928E-02   -0.65659E-03  1275   0.250E-01    0.750E-01
RMM:  35    -0.124126456177E+03   -0.13582E-01   -0.36438E-03  1221   0.180E-01    0.645E-01
RMM:  36    -0.124136642464E+03   -0.10186E-01   -0.20521E-03  1127   0.127E-01    0.636E-01
RMM:  37    -0.124141967386E+03   -0.53249E-02   -0.21118E-03  1112   0.117E-01    0.686E-01
RMM:  38    -0.124143336253E+03   -0.13689E-02   -0.70201E-04   992   0.719E-02    0.499E-01
RMM:  39    -0.124147155892E+03   -0.38196E-02   -0.62379E-04   968   0.647E-02    0.360E-01
RMM:  40    -0.124150871578E+03   -0.37157E-02   -0.63167E-04   948   0.651E-02    0.285E-01
RMM:  41    -0.124154393253E+03   -0.35217E-02   -0.62021E-04   940   0.577E-02    0.134E-01
RMM:  42    -0.124159860597E+03   -0.54673E-02   -0.83540E-04   931   0.620E-02    0.116E-01
RMM:  43    -0.124162619764E+03   -0.27592E-02   -0.28896E-04   858   0.381E-02    0.244E-01
RMM:  44    -0.124164243732E+03   -0.16240E-02   -0.12463E-04   813   0.386E-02    0.313E-01
RMM:  45    -0.124165618934E+03   -0.13752E-02   -0.13377E-04   813   0.325E-02    0.164E-01
RMM:  46    -0.124166864005E+03   -0.12451E-02   -0.79332E-05   756   0.270E-02    0.131E-01
RMM:  47    -0.124167658035E+03   -0.79403E-03   -0.50486E-05   745   0.217E-02    0.176E-01
RMM:  48    -0.124168564847E+03   -0.90681E-03   -0.55926E-05   710   0.203E-02    0.312E-01
RMM:  49    -0.124168392892E+03    0.17196E-03   -0.34930E-05   702   0.203E-02    0.196E-01
RMM:  50    -0.124168847922E+03   -0.45503E-03   -0.30605E-05   692   0.177E-02    0.305E-01
RMM:  51    -0.124167876401E+03    0.97152E-03   -0.66701E-05   735   0.254E-02    0.134E-01
RMM:  52    -0.124168255170E+03   -0.37877E-03   -0.69337E-05   700   0.289E-02    0.261E-01
RMM:  53    -0.124168812038E+03   -0.55687E-03   -0.34878E-05   665   0.200E-02    0.358E-01
RMM:  54    -0.124168415074E+03    0.39696E-03   -0.16311E-05   645   0.158E-02    0.226E-01
RMM:  55    -0.124168779763E+03   -0.36469E-03   -0.11387E-05   500   0.112E-02    0.233E-01
RMM:  56    -0.124169820105E+03   -0.10403E-02   -0.30442E-05   685   0.137E-02    0.420E-01
RMM:  57    -0.124171229505E+03   -0.14094E-02   -0.53035E-05   729   0.199E-02    0.638E-01
RMM:  58    -0.124171208767E+03    0.20738E-04   -0.39537E-05   701   0.209E-02
   1 F= -.12417121E+03 E0= -.12416075E+03  d E =-.124171E+03  mag=    17.5456
 curvature:   0.00 expect dE= 0.000E+00 dE for cont linesearch  0.000E+00
 trial: gam= 0.00000 g(F)=  0.320E-03 g(S)=  0.000E+00 ort = 0.000E+00 (trialstep = 0.100E+01)
 search vector abs. value=  0.320E-03
 bond charge predicted
       N       E                     dE             d eps       ncg     rms          rms(c)
DAV:   1    -0.124170822992E+03    0.40651E-03   -0.37835E-02  1656   0.139E+00    0.733E-01
RMM:   2    -0.124852737650E+03   -0.68191E+00   -0.16373E-01  1339   0.848E-01    0.481E+00
RMM:   3    -0.124180029281E+03    0.67271E+00   -0.87862E-02  1343   0.676E-01    0.175E+00
RMM:   4    -0.124167480965E+03    0.12548E-01   -0.24768E-02  1276   0.415E-01    0.544E-01
RMM:   5    -0.124168687052E+03   -0.12061E-02   -0.38658E-03  1284   0.201E-01    0.239E-01
RMM:   6    -0.124168689737E+03   -0.26854E-05   -0.11458E-03  1107   0.909E-02    0.193E-01
RMM:   7    -0.124168124635E+03    0.56510E-03   -0.21620E-04   863   0.513E-02    0.120E-01
RMM:   8    -0.124167685739E+03    0.43890E-03   -0.69323E-05   747   0.335E-02    0.833E-02
RMM:   9    -0.124167311631E+03    0.37411E-03   -0.41874E-05   737   0.256E-02    0.903E-02
RMM:  10    -0.124167526868E+03   -0.21524E-03   -0.73221E-05   737   0.276E-02    0.436E-02
RMM:  11    -0.124167700822E+03   -0.17395E-03   -0.44130E-05   703   0.202E-02    0.345E-02
RMM:  12    -0.124168036586E+03   -0.33576E-03   -0.45546E-05   674   0.182E-02    0.283E-02
RMM:  13    -0.124168603613E+03   -0.56703E-03   -0.78757E-05   709   0.196E-02    0.669E-02
RMM:  14    -0.124168960412E+03   -0.35680E-03   -0.34961E-05   635   0.149E-02    0.453E-02
RMM:  15    -0.124169458324E+03   -0.49791E-03   -0.36564E-05   651   0.140E-02    0.339E-02
RMM:  16    -0.124169946901E+03   -0.48858E-03   -0.30026E-05   640   0.127E-02    0.168E-02
RMM:  17    -0.124170233503E+03   -0.28660E-03   -0.15036E-05   503   0.101E-02    0.126E-02
RMM:  18    -0.124170478958E+03   -0.24546E-03   -0.40401E-06   380   0.750E-03    0.644E-03
RMM:  19    -0.124170694567E+03   -0.21561E-03   -0.21428E-06   384   0.687E-03    0.488E-03
RMM:  20    -0.124170939072E+03   -0.24451E-03   -0.21807E-06   385   0.659E-03    0.140E-02
RMM:  21    -0.124171041974E+03   -0.10290E-03   -0.76360E-07   282   0.550E-03    0.879E-03
RMM:  22    -0.124171108377E+03   -0.66403E-04   -0.99006E-07   281   0.547E-03
   2 F= -.12417111E+03 E0= -.12416078E+03  d E =0.100390E-03  mag=    17.4691
 trial-energy change:    0.000100  1 .order   -0.000059   -0.000320    0.000202
 step:   0.6130(harm=  0.6130)  dis= 0.00111  next Energy=  -124.171307 (dE=-0.981E-04)
 bond charge predicted
       N       E                     dE             d eps       ncg     rms          rms(c)
DAV:   1    -0.124171152539E+03   -0.11057E-03   -0.57072E-03  1634   0.533E-01    0.446E-02
RMM:   2    -0.124172126945E+03   -0.97441E-03   -0.85617E-04  1204   0.968E-02    0.371E-01
RMM:   3    -0.124171110713E+03    0.10162E-02   -0.13177E-04   791   0.496E-02    0.651E-02
RMM:   4    -0.124171289776E+03   -0.17906E-03   -0.85900E-05   735   0.328E-02    0.851E-02
RMM:   5    -0.124171231763E+03    0.58013E-04   -0.18820E-05   676   0.184E-02
   3 F= -.12417123E+03 E0= -.12416090E+03  d E =-.229959E-04  mag=    17.4694
 curvature:  -0.31 expect dE=-0.204E-04 dE for cont linesearch -0.158E-04
 ZBRENT: interpolating
 opt :   0.4376  next Energy=  -124.171243 (dE=-0.342E-04)
 bond charge predicted
       N       E                     dE             d eps       ncg     rms          rms(c)
DAV:   1    -0.124171242511E+03    0.47266E-04   -0.11607E-03  1626   0.244E-01    0.201E-02
RMM:   2    -0.124171279692E+03   -0.37181E-04   -0.14892E-04   819   0.423E-02
   4 F= -.12417128E+03 E0= -.12416092E+03  d E =-.709244E-04  mag=    17.4695
 curvature:  -0.22 expect dE=-0.457E-05 dE for cont linesearch -0.178E-05
 ZBRENT: interpolating
 opt :   0.3377  next Energy=  -124.171283 (dE=-0.738E-04)
 bond charge predicted
       N       E                     dE             d eps       ncg     rms          rms(c)
DAV:   1    -0.124171290343E+03   -0.47832E-04   -0.89082E-04  1306   0.167E-01    0.812E-02
RMM:   2    -0.124190723048E+03   -0.19433E-01   -0.21887E-03  1181   0.103E-01    0.157E+00
RMM:   3    -0.124168917087E+03    0.21806E-01   -0.21612E-03  1134   0.124E-01    0.172E-01
RMM:   4    -0.124171127827E+03   -0.22107E-02   -0.44154E-04   874   0.748E-02    0.339E-02
RMM:   5    -0.124171254621E+03   -0.12679E-03   -0.71807E-05   739   0.362E-02    0.106E-02
RMM:   6    -0.124171259551E+03   -0.49297E-05   -0.83908E-06   639   0.143E-02
   5 F= -.12417126E+03 E0= -.12416092E+03  d E =-.507834E-04  mag=    17.4702
 curvature:  -0.36 expect dE=-0.697E-05 dE for cont linesearch -0.458E-05
 ZBRENT: bisectioning
 opt :   0.1688  next Energy=  -124.171272 (dE=-0.635E-04)
 bond charge predicted
       N       E                     dE             d eps       ncg     rms          rms(c)
DAV:   1    -0.124171251276E+03    0.33453E-05   -0.10860E-03  1632   0.234E-01    0.195E-02
RMM:   2    -0.124171454252E+03   -0.20298E-03   -0.16085E-04   826   0.432E-02    0.161E-01
RMM:   3    -0.124171236371E+03    0.21788E-03   -0.26697E-05   688   0.236E-02    0.372E-02
RMM:   4    -0.124171267372E+03   -0.31002E-04   -0.17661E-05   613   0.151E-02
   6 F= -.12417127E+03 E0= -.12416094E+03  d E =-.586051E-04  mag=    17.4704
 curvature:  -0.99 expect dE=-0.115E-04 dE for cont linesearch -0.433E-05
 trial: gam= 0.00000 g(F)=  0.117E-04 g(S)=  0.000E+00 ort =-0.374E-04 (trialstep = 0.834E+00)
 search vector abs. value=  0.117E-04
 reached required accuracy - stopping structural energy minimisation
 running on    8 total cores
 distrk:  each k-point on    8 cores,    1 groups
 distr:  one band on    4 cores,    2 groups
 using from now: INCAR     
 vasp.5.4.1 24Jun15 (build Jan 06 2016 13:10:00) complex                        
  
 POSCAR found type information on POSCAR  Sr Fe O 
 POSCAR found :  3 types and      20 ions
 scaLAPACK will be used

 ----------------------------------------------------------------------------- 
|                                                                             |
|           W    W    AA    RRRRR   N    N  II  N    N   GGGG   !!!           |
|           W    W   A  A   R    R  NN   N  II  NN   N  G    G  !!!           |
|           W    W  A    A  R    R  N N  N  II  N N  N  G       !!!           |
|           W WW W  AAAAAA  RRRRR   N  N N  II  N  N N  G  GGG   !            |
|           WW  WW  A    A  R   R   N   NN  II  N   NN  G    G                |
|           W    W  A    A  R    R  N    N  II  N    N   GGGG   !!!           |
|                                                                             |
|      For LVTOT=.TRUE. VASP.5.x writes the TOTAL local potential to          |
|      the file LOCPOT. If you want the Hartree contributions only, use       |
|      LVHAR=.TRUE. instead.                                                  |
|                                                                             |
 ----------------------------------------------------------------------------- 

 LDA part: xc-table for Ceperly-Alder, standard interpolation
 POSCAR found type information on POSCAR  Sr Fe O 
 POSCAR found :  3 types and      20 ions
 POSCAR, INCAR and KPOINTS ok, starting setup
 WARNING: small aliasing (wrap around) errors must be expected
 FFT: planning ...
 WAVECAR not read
 WARNING: chargedensity file is incomplete
 entering main loop
       N       E                     dE             d eps       ncg     rms          rms(c)
DAV:   1     0.144872874427E+04    0.14487E+04   -0.70767E+04  1496   0.106E+03
DAV:   2    -0.222984632377E+02   -0.14710E+04   -0.13991E+04  1382   0.382E+02
DAV:   3    -0.144618609261E+03   -0.12232E+03   -0.12011E+03  1560   0.119E+02
DAV:   4    -0.150150192778E+03   -0.55316E+01   -0.55034E+01  2024   0.254E+01
DAV:   5    -0.150622763418E+03   -0.47257E+00   -0.47226E+00  2288   0.441E+00    0.545E+01
RMM:   6    -0.272287985182E+03   -0.12167E+03   -0.58852E+02  1445   0.940E+01    0.909E+01
RMM:   7    -0.739357618428E+03   -0.46707E+03   -0.63131E+02  1616   0.498E+01    0.977E+01
RMM:   8    -0.184053031492E+03    0.55530E+03   -0.65007E+01  1340   0.295E+01    0.754E+01
RMM:   9    -0.122875685535E+03    0.61177E+02   -0.15561E+01  1336   0.157E+01    0.360E+01
RMM:  10    -0.121025892420E+03    0.18498E+01   -0.67258E+00  1362   0.926E+00    0.273E+01
RMM:  11    -0.123932576390E+03   -0.29067E+01   -0.19663E+00  1351   0.503E+00    0.250E+01
RMM:  12    -0.124606187364E+03   -0.67361E+00   -0.41168E+00  1333   0.685E+00    0.204E+01
RMM:  13    -0.122932597643E+03    0.16736E+01   -0.52882E+00  1354   0.687E+00    0.131E+01
RMM:  14    -0.123344787623E+03   -0.41219E+00   -0.10145E+00  1356   0.369E+00    0.101E+01
RMM:  15    -0.123698887807E+03   -0.35410E+00   -0.25379E-01  1500   0.165E+00    0.877E+00
RMM:  16    -0.124155236259E+03   -0.45635E+00   -0.10101E+00  1348   0.312E+00    0.715E+00
RMM:  17    -0.123809005101E+03    0.34623E+00   -0.90294E-01  1394   0.286E+00    0.540E+00
RMM:  18    -0.123688666428E+03    0.12034E+00   -0.25031E-01  1465   0.145E+00    0.497E+00
RMM:  19    -0.123593685724E+03    0.94981E-01   -0.12334E-01  1390   0.108E+00    0.397E+00
RMM:  20    -0.123545914293E+03    0.47771E-01   -0.13756E-01  1351   0.134E+00    0.273E+00
RMM:  21    -0.123596098368E+03   -0.50184E-01   -0.57859E-02  1411   0.808E-01    0.198E+00
RMM:  22    -0.123699261600E+03   -0.10316E+00   -0.83645E-02  1346   0.837E-01    0.155E+00
RMM:  23    -0.123954587203E+03   -0.25533E+00   -0.72940E-02  1356   0.773E-01    0.270E+00
RMM:  24    -0.123877720409E+03    0.76867E-01   -0.71737E-03  1339   0.274E-01    0.220E+00
RMM:  25    -0.123848358132E+03    0.29362E-01   -0.19747E-03  1276   0.104E-01    0.178E+00
RMM:  26    -0.123884026699E+03   -0.35669E-01   -0.19281E-02  1304   0.445E-01    0.133E+00
RMM:  27    -0.123952845006E+03   -0.68818E-01   -0.23610E-02  1303   0.477E-01    0.135E+00
RMM:  28    -0.123962630847E+03   -0.97858E-02   -0.46915E-03  1256   0.221E-01    0.119E+00
RMM:  29    -0.123988787040E+03   -0.26156E-01   -0.32233E-03  1243   0.162E-01    0.153E+00
RMM:  30    -0.124014680274E+03   -0.25893E-01   -0.75938E-03  1261   0.249E-01    0.110E+00
RMM:  31    -0.124076188902E+03   -0.61509E-01   -0.10059E-02  1291   0.302E-01    0.175E+00
RMM:  32    -0.124067937302E+03    0.82516E-02   -0.11279E-02  1268   0.303E-01    0.750E-01
RMM:  33    -0.124081321082E+03   -0.13384E-01   -0.40873E-03  1248   0.196E-01    0.594E-01
RMM:  34    -0.124091160635E+03   -0.98396E-02   -0.14787E-03  1164   0.123E-01    0.750E-01
RMM:  35    -0.124101230051E+03   -0.10069E-01   -0.39328E-03  1205   0.173E-01    0.419E-01
RMM:  36    -0.124134586709E+03   -0.33357E-01   -0.51829E-03  1232   0.185E-01    0.121E+00
RMM:  37    -0.124137545570E+03   -0.29589E-02   -0.35113E-03  1179   0.187E-01    0.114E+00
RMM:  38    -0.124132255694E+03    0.52899E-02   -0.25207E-03  1166   0.120E-01    0.420E-01
RMM:  39    -0.124146098701E+03   -0.13843E-01   -0.18767E-03  1157   0.127E-01    0.115E+00
RMM:  40    -0.124139899273E+03    0.61994E-02   -0.10415E-03  1035   0.965E-02    0.425E-01
RMM:  41    -0.124151385711E+03   -0.11486E-01   -0.79515E-04  1035   0.693E-02    0.134E+00
RMM:  42    -0.124147372666E+03    0.40130E-02   -0.69511E-04   973   0.784E-02    0.114E+00
RMM:  43    -0.124148474684E+03   -0.11020E-02   -0.66285E-04   945   0.611E-02    0.114E+00
RMM:  44    -0.124148809078E+03   -0.33439E-03   -0.72372E-05   766   0.279E-02    0.113E+00
RMM:  45    -0.124151741549E+03   -0.29325E-02   -0.16689E-04   824   0.298E-02    0.134E+00
RMM:  46    -0.124151272452E+03    0.46910E-03   -0.28427E-05   698   0.204E-02    0.134E+00
RMM:  47    -0.124151640261E+03   -0.36781E-03   -0.80969E-06   531   0.105E-02    0.136E+00
RMM:  48    -0.124150775831E+03    0.86443E-03   -0.77514E-06   621   0.116E-02    0.132E+00
RMM:  49    -0.124149019940E+03    0.17559E-02   -0.36332E-05   737   0.211E-02    0.123E+00
RMM:  50    -0.124145294687E+03    0.37253E-02   -0.79032E-04  1014   0.788E-02    0.113E+00
RMM:  51    -0.124139543752E+03    0.57509E-02   -0.17112E-03  1165   0.113E-01    0.850E-01
RMM:  52    -0.124143097168E+03   -0.35534E-02   -0.20495E-04   839   0.607E-02    0.916E-01
RMM:  53    -0.124143002572E+03    0.94596E-04   -0.10456E-04   779   0.326E-02
   1 F= -.12414300E+03 E0= -.12413306E+03  d E =-.124143E+03  mag=    17.3345
 curvature:   0.00 expect dE= 0.000E+00 dE for cont linesearch  0.000E+00
 trial: gam= 0.00000 g(F)=  0.165E-03 g(S)=  0.000E+00 ort = 0.000E+00 (trialstep = 0.100E+01)
 search vector abs. value=  0.165E-03
 bond charge predicted
       N       E                     dE             d eps       ncg     rms          rms(c)
DAV:   1    -0.124142728927E+03    0.36824E-03   -0.22682E-02  1602   0.114E+00    0.103E+00
RMM:   2    -0.124378592960E+03   -0.23586E+00   -0.11385E-01  1324   0.774E-01    0.334E+00
RMM:   3    -0.124241352540E+03    0.13724E+00   -0.81822E-02  1325   0.647E-01    0.218E+00
RMM:   4    -0.124176653770E+03    0.64699E-01   -0.18444E-02  1278   0.454E-01    0.176E+00
RMM:   5    -0.124160056989E+03    0.16597E-01   -0.66543E-03  1205   0.210E-01    0.113E+00
RMM:   6    -0.124154960554E+03    0.50964E-02   -0.70324E-03  1210   0.200E-01    0.872E-01
RMM:   7    -0.124153961893E+03    0.99866E-03   -0.32808E-03  1221   0.159E-01    0.592E-01
RMM:   8    -0.124156002312E+03   -0.20404E-02   -0.27627E-03  1202   0.127E-01    0.619E-01
RMM:   9    -0.124154149713E+03    0.18526E-02   -0.12165E-03  1135   0.102E-01    0.346E-01
RMM:  10    -0.124158341789E+03   -0.41921E-02   -0.19745E-03  1098   0.109E-01    0.381E-01
RMM:  11    -0.124158668621E+03   -0.32683E-03   -0.26892E-04   850   0.593E-02    0.234E-01
RMM:  12    -0.124160083840E+03   -0.14152E-02   -0.27465E-04   844   0.441E-02    0.179E-01
RMM:  13    -0.124161101594E+03   -0.10178E-02   -0.39430E-04   894   0.523E-02    0.680E-02
RMM:  14    -0.124162482731E+03   -0.13811E-02   -0.20492E-04   808   0.382E-02    0.882E-02
RMM:  15    -0.124163712404E+03   -0.12297E-02   -0.11239E-04   746   0.267E-02    0.613E-02
RMM:  16    -0.124165230801E+03   -0.15184E-02   -0.12693E-04   780   0.280E-02    0.409E-02
RMM:  17    -0.124167227155E+03   -0.19964E-02   -0.17821E-04   781   0.268E-02    0.251E-02
RMM:  18    -0.124168241556E+03   -0.10144E-02   -0.53371E-05   706   0.174E-02    0.247E-02
RMM:  19    -0.124169275400E+03   -0.10338E-02   -0.48554E-05   637   0.152E-02    0.151E-02
RMM:  20    -0.124169982712E+03   -0.70731E-03   -0.22567E-05   574   0.119E-02    0.122E-02
RMM:  21    -0.124170417348E+03   -0.43464E-03   -0.81015E-06   487   0.890E-03    0.101E-02
RMM:  22    -0.124170659973E+03   -0.24262E-03   -0.23150E-06   356   0.676E-03    0.961E-03
RMM:  23    -0.124170917678E+03   -0.25771E-03   -0.31815E-06   409   0.704E-03    0.116E-02
RMM:  24    -0.124171047195E+03   -0.12952E-03   -0.28809E-06   348   0.628E-03    0.428E-03
RMM:  25    -0.124171184628E+03   -0.13743E-03   -0.98949E-06   424   0.768E-03    0.468E-03
RMM:  26    -0.124171234586E+03   -0.49958E-04   -0.85229E-06   380   0.684E-03
   2 F= -.12417123E+03 E0= -.12416089E+03  d E =-.282320E-01  mag=    17.4694
 trial-energy change:   -0.028232  1 .order   -0.000041   -0.000165    0.000084
 step:   0.9995(harm=  0.6636)  dis= 0.00103  next Energy=  -124.171235 (dE=-0.282E-01)
 bond charge predicted
       N       E                     dE             d eps       ncg     rms          rms(c)
DAV:   1    -0.124171241936E+03   -0.57308E-04   -0.39227E-06   890   0.569E-03    0.167E-03
RMM:   2    -0.124171247133E+03   -0.51970E-05   -0.11972E-07   205   0.328E-03
   3 F= -.12417125E+03 E0= -.12416092E+03  d E =-.282446E-01  mag=    17.4694
 curvature:   0.00 expect dE=-0.842E-07 dE for cont linesearch -0.384E-07
 ZBRENT: interpolating
 opt :   0.6716  next Energy=  -124.171260 (dE=-0.283E-01)
 bond charge predicted
       N       E                     dE             d eps       ncg     rms          rms(c)
DAV:   1    -0.124171219018E+03    0.22918E-04   -0.24743E-03  1662   0.371E-01    0.322E-02
RMM:   2    -0.124171354566E+03   -0.13555E-03   -0.42798E-04   947   0.648E-02    0.133E-01
RMM:   3    -0.124171342677E+03    0.11889E-04   -0.43328E-05   683   0.273E-02
   4 F= -.12417134E+03 E0= -.12416094E+03  d E =-.283401E-01  mag=    17.4696
 curvature:  -0.34 expect dE=-0.158E-04 dE for cont linesearch -0.976E-05
 ZBRENT: bisectioning
 opt :   0.3358  next Energy=  -124.171364 (dE=-0.284E-01)
 bond charge predicted
       N       E                     dE             d eps       ncg     rms          rms(c)
DAV:   1    -0.124171218027E+03    0.13654E-03   -0.34409E-03  1568   0.404E-01    0.483E-02
RMM:   2    -0.124175185545E+03   -0.39675E-02   -0.88071E-04  1225   0.882E-02    0.700E-01
RMM:   3    -0.124170897815E+03    0.42877E-02   -0.38274E-04   930   0.672E-02    0.159E-01
RMM:   4    -0.124171226126E+03   -0.32831E-03   -0.20589E-04   789   0.474E-02    0.308E-02
RMM:   5    -0.124171268057E+03   -0.41931E-04   -0.23899E-05   701   0.216E-02
   5 F= -.12417127E+03 E0= -.12416095E+03  d E =-.282655E-01  mag=    17.4697
 curvature:  -0.73 expect dE=-0.189E-04 dE for cont linesearch -0.224E-05
 ZBRENT: interpolating
 opt :   0.2103  next Energy=  -124.171270 (dE=-0.283E-01)
 bond charge predicted
       N       E                     dE             d eps       ncg     rms          rms(c)
DAV:   1    -0.124171260633E+03   -0.34507E-04   -0.38295E-04  1464   0.148E-01    0.134E-02
RMM:   2    -0.124171276942E+03   -0.16308E-04   -0.74633E-05   688   0.284E-02
   6 F= -.12417128E+03 E0= -.12416097E+03  d E =-.282744E-01  mag=    17.4699
 curvature:  -0.56 expect dE=-0.131E-04 dE for cont linesearch -0.160E-07
 trial: gam= 0.12787 g(F)=  0.233E-04 g(S)=  0.000E+00 ort = 0.216E-05 (trialstep = 0.842E+00)
 search vector abs. value=  0.265E-04
 bond charge predicted
       N       E                     dE             d eps       ncg     rms          rms(c)
DAV:   1    -0.124171264253E+03   -0.36197E-05   -0.22192E-03  1600   0.276E-01    0.593E-02
RMM:   2    -0.124179533703E+03   -0.82694E-02   -0.11072E-03  1212   0.842E-02    0.104E+00
RMM:   3    -0.124170109978E+03    0.94237E-02   -0.91956E-04  1066   0.919E-02    0.127E-01
RMM:   4    -0.124171215901E+03   -0.11059E-02   -0.21837E-04   839   0.599E-02    0.269E-02
RMM:   5    -0.124171262440E+03   -0.46539E-04   -0.26776E-05   699   0.249E-02
   7 F= -.12417126E+03 E0= -.12416091E+03  d E =0.145015E-04  mag=    17.4703
 trial-energy change:    0.000015  1 .order   -0.000011   -0.000020   -0.000002
 step:   0.9629(harm=  0.9629)  dis= 0.00073  next Energy=  -124.171288 (dE=-0.113E-04)
 reached required accuracy - stopping structural energy minimisation
 running on    8 total cores
 distrk:  each k-point on    8 cores,    1 groups
 distr:  one band on    4 cores,    2 groups
 using from now: INCAR     
 vasp.5.4.1 24Jun15 (build Jan 06 2016 13:10:00) complex                        
  
 POSCAR found type information on POSCAR  Sr Fe O 
 POSCAR found :  3 types and      20 ions
 scaLAPACK will be used

 ----------------------------------------------------------------------------- 
|                                                                             |
|           W    W    AA    RRRRR   N    N  II  N    N   GGGG   !!!           |
|           W    W   A  A   R    R  NN   N  II  NN   N  G    G  !!!           |
|           W    W  A    A  R    R  N N  N  II  N N  N  G       !!!           |
|           W WW W  AAAAAA  RRRRR   N  N N  II  N  N N  G  GGG   !            |
|           WW  WW  A    A  R   R   N   NN  II  N   NN  G    G                |
|           W    W  A    A  R    R  N    N  II  N    N   GGGG   !!!           |
|                                                                             |
|      For LVTOT=.TRUE. VASP.5.x writes the TOTAL local potential to          |
|      the file LOCPOT. If you want the Hartree contributions only, use       |
|      LVHAR=.TRUE. instead.                                                  |
|                                                                             |
 ----------------------------------------------------------------------------- 

 LDA part: xc-table for Ceperly-Alder, standard interpolation
 POSCAR found type information on POSCAR  Sr Fe O 
 POSCAR found :  3 types and      20 ions
 POSCAR, INCAR and KPOINTS ok, starting setup
 WARNING: small aliasing (wrap around) errors must be expected
 FFT: planning ...
 WAVECAR not read
 WARNING: chargedensity file is incomplete
 entering main loop
       N       E                     dE             d eps       ncg     rms          rms(c)
DAV:   1     0.144871236703E+04    0.14487E+04   -0.70767E+04  1496   0.106E+03
DAV:   2    -0.222998439804E+02   -0.14710E+04   -0.13991E+04  1382   0.382E+02
DAV:   3    -0.144619187164E+03   -0.12232E+03   -0.12011E+03  1560   0.119E+02
DAV:   4    -0.150145823386E+03   -0.55266E+01   -0.54984E+01  2016   0.254E+01
DAV:   5    -0.150622751427E+03   -0.47693E+00   -0.47661E+00  2288   0.445E+00    0.545E+01
RMM:   6    -0.272174404243E+03   -0.12155E+03   -0.58837E+02  1445   0.941E+01    0.909E+01
RMM:   7    -0.739385424579E+03   -0.46721E+03   -0.63117E+02  1616   0.498E+01    0.977E+01
RMM:   8    -0.184048398660E+03    0.55534E+03   -0.65090E+01  1340   0.295E+01    0.754E+01
RMM:   9    -0.122867677881E+03    0.61181E+02   -0.15563E+01  1337   0.157E+01    0.359E+01
RMM:  10    -0.121025867308E+03    0.18418E+01   -0.67261E+00  1362   0.926E+00    0.273E+01
RMM:  11    -0.123931480264E+03   -0.29056E+01   -0.19714E+00  1351   0.504E+00    0.250E+01
RMM:  12    -0.124596945901E+03   -0.66547E+00   -0.40994E+00  1333   0.683E+00    0.204E+01
RMM:  13    -0.122922882391E+03    0.16741E+01   -0.53108E+00  1354   0.689E+00    0.131E+01
RMM:  14    -0.123346903111E+03   -0.42402E+00   -0.99973E-01  1356   0.366E+00    0.101E+01
RMM:  15    -0.123696258743E+03   -0.34936E+00   -0.25648E-01  1497   0.165E+00    0.879E+00
RMM:  16    -0.124150103195E+03   -0.45384E+00   -0.10012E+00  1347   0.311E+00    0.714E+00
RMM:  17    -0.123809007890E+03    0.34110E+00   -0.90990E-01  1395   0.286E+00    0.540E+00
RMM:  18    -0.123686208103E+03    0.12280E+00   -0.25095E-01  1466   0.146E+00    0.498E+00
RMM:  19    -0.123590358721E+03    0.95849E-01   -0.12418E-01  1388   0.108E+00    0.398E+00
RMM:  20    -0.123542886497E+03    0.47472E-01   -0.13719E-01  1352   0.134E+00    0.273E+00
RMM:  21    -0.123596063634E+03   -0.53177E-01   -0.58232E-02  1412   0.810E-01    0.199E+00
RMM:  22    -0.123696884661E+03   -0.10082E+00   -0.84063E-02  1346   0.839E-01    0.158E+00
RMM:  23    -0.123968173170E+03   -0.27129E+00   -0.74449E-02  1357   0.792E-01    0.283E+00
RMM:  24    -0.123875470715E+03    0.92702E-01   -0.10240E-02  1358   0.301E-01    0.202E+00
RMM:  25    -0.123863794628E+03    0.11676E-01   -0.15650E-03  1277   0.947E-02    0.175E+00
RMM:  26    -0.124049845967E+03   -0.18605E+00   -0.24490E-02  1303   0.450E-01    0.294E+00
RMM:  27    -0.124131982516E+03   -0.82137E-01   -0.18395E-02  1290   0.423E-01    0.300E+00
RMM:  28    -0.124128695033E+03    0.32875E-02   -0.15079E-02  1276   0.343E-01    0.259E+00
RMM:  29    -0.124054899420E+03    0.73796E-01   -0.59425E-03  1275   0.196E-01    0.190E+00
RMM:  30    -0.124046913185E+03    0.79862E-02   -0.22986E-03  1239   0.153E-01    0.164E+00
RMM:  31    -0.124070489637E+03   -0.23576E-01   -0.11186E-02  1282   0.314E-01    0.128E+00
RMM:  32    -0.124077184627E+03   -0.66950E-02   -0.98207E-03  1276   0.295E-01    0.662E-01
RMM:  33    -0.124080662526E+03   -0.34779E-02   -0.29900E-03  1237   0.167E-01    0.756E-01
RMM:  34    -0.124078940667E+03    0.17219E-02   -0.39713E-04   997   0.771E-02    0.754E-01
RMM:  35    -0.124093320475E+03   -0.14380E-01   -0.23837E-03  1222   0.126E-01    0.180E+00
RMM:  36    -0.124096590695E+03   -0.32702E-02   -0.96576E-04  1072   0.109E-01    0.206E+00
RMM:  37    -0.124093752245E+03    0.28385E-02   -0.54949E-04   876   0.685E-02    0.204E+00
RMM:  38    -0.124098340221E+03   -0.45880E-02   -0.12140E-04   779   0.390E-02    0.213E+00
RMM:  39    -0.124103131949E+03   -0.47917E-02   -0.25258E-04   905   0.417E-02    0.220E+00
RMM:  40    -0.124125679557E+03   -0.22548E-01   -0.33783E-03  1234   0.144E-01    0.224E+00
RMM:  41    -0.124165568851E+03   -0.39889E-01   -0.69248E-03  1272   0.212E-01    0.236E+00
RMM:  42    -0.124174835232E+03   -0.92664E-02   -0.32199E-03  1193   0.168E-01    0.227E+00
RMM:  43    -0.124210792103E+03   -0.35957E-01   -0.37316E-03  1233   0.156E-01    0.245E+00
RMM:  44    -0.124200779898E+03    0.10012E-01   -0.73775E-04  1056   0.905E-02    0.230E+00
RMM:  45    -0.124213936578E+03   -0.13157E-01   -0.20645E-03  1182   0.131E-01    0.232E+00
RMM:  46    -0.124226311060E+03   -0.12374E-01   -0.12027E-03  1101   0.106E-01    0.231E+00
RMM:  47    -0.124226242261E+03    0.68799E-04   -0.18574E-03  1087   0.111E-01    0.212E+00
RMM:  48    -0.124226268607E+03   -0.26346E-04   -0.52376E-04   962   0.652E-02
   1 F= -.12422627E+03 E0= -.12421853E+03  d E =-.124226E+03  mag=    17.4561
 curvature:   0.00 expect dE= 0.000E+00 dE for cont linesearch  0.000E+00
 trial: gam= 0.00000 g(F)=  0.428E-02 g(S)=  0.000E+00 ort = 0.000E+00 (trialstep = 0.100E+01)
 search vector abs. value=  0.428E-02
 bond charge predicted
       N       E                     dE             d eps       ncg     rms          rms(c)
DAV:   1    -0.124215200348E+03    0.11042E-01   -0.49765E-01  1728   0.510E+00    0.203E+00
RMM:   2    -0.131645759005E+03   -0.74306E+01   -0.14540E+00  1380   0.268E+00    0.367E+01
RMM:   3    -0.124521192020E+03    0.71246E+01   -0.53722E-01  1343   0.209E+00    0.516E+00
RMM:   4    -0.124193443596E+03    0.32775E+00   -0.28846E-01  1332   0.153E+00    0.226E+00
RMM:   5    -0.124164096549E+03    0.29347E-01   -0.33375E-02  1335   0.606E-01    0.134E+00
RMM:   6    -0.124151957096E+03    0.12139E-01   -0.19368E-02  1316   0.345E-01    0.130E+00
[...]
RMM:  20    -0.123543360284E+03    0.47215E-01   -0.13730E-01  1353   0.134E+00    0.273E+00
RMM:  21    -0.123596290904E+03   -0.52931E-01   -0.58009E-02  1412   0.809E-01    0.199E+00
RMM:  22    -0.123696711468E+03   -0.10042E+00   -0.83697E-02  1346   0.837E-01    0.158E+00
RMM:  23    -0.123968018471E+03   -0.27131E+00   -0.74594E-02  1358   0.791E-01    0.283E+00
RMM:  24    -0.123875637271E+03    0.92381E-01   -0.10114E-02  1356   0.300E-01    0.203E+00
RMM:  25    -0.123863364160E+03    0.12273E-01   -0.15425E-03  1273   0.942E-02    0.176E+00
RMM:  26    -0.124048029351E+03   -0.18467E+00   -0.24384E-02  1301   0.451E-01    0.293E+00
RMM:  27    -0.124128250470E+03   -0.80221E-01   -0.17829E-02  1293   0.420E-01    0.297E+00
RMM:  28    -0.124123227104E+03    0.50234E-02   -0.14181E-02  1272   0.335E-01    0.256E+00
RMM:  29    -0.124051946408E+03    0.71281E-01   -0.53321E-03  1277   0.187E-01    0.192E+00
RMM:  30    -0.124045253173E+03    0.66932E-02   -0.17641E-03  1213   0.136E-01    0.173E+00
RMM:  31    -0.124082490031E+03   -0.37237E-01   -0.98849E-03  1264   0.292E-01    0.167E+00
RMM:  32    -0.124091917679E+03   -0.94276E-02   -0.12774E-02  1291   0.339E-01    0.980E-01
RMM:  33    -0.124091019469E+03    0.89821E-03   -0.61759E-03  1255   0.223E-01    0.968E-01
RMM:  34    -0.124088912545E+03    0.21069E-02   -0.93834E-04  1052   0.126E-01    0.956E-01
RMM:  35    -0.124089881177E+03   -0.96863E-03   -0.52748E-04  1027   0.629E-02    0.120E+00
RMM:  36    -0.124094694457E+03   -0.48133E-02   -0.59140E-04  1067   0.675E-02    0.164E+00
RMM:  37    -0.124091883067E+03    0.28114E-02   -0.45675E-04   912   0.702E-02    0.162E+00
RMM:  38    -0.124088497448E+03    0.33856E-02   -0.19593E-04   844   0.448E-02    0.139E+00
RMM:  39    -0.124090628620E+03   -0.21312E-02   -0.23854E-03  1200   0.135E-01    0.851E-01
RMM:  40    -0.124099721065E+03   -0.90924E-02   -0.29028E-03  1202   0.157E-01    0.902E-01
RMM:  41    -0.124110849580E+03   -0.11129E-01   -0.65120E-03  1225   0.216E-01    0.160E+00
RMM:  42    -0.124105968610E+03    0.48810E-02   -0.40934E-03  1228   0.191E-01    0.133E+00
RMM:  43    -0.124110048345E+03   -0.40797E-02   -0.67444E-04   963   0.785E-02    0.136E+00
RMM:  44    -0.124110702914E+03   -0.65457E-03   -0.76443E-05   772   0.282E-02    0.135E+00
RMM:  45    -0.124108666706E+03    0.20362E-02   -0.29322E-04   867   0.443E-02    0.135E+00
RMM:  46    -0.124110818926E+03   -0.21522E-02   -0.15902E-04   767   0.368E-02    0.136E+00
RMM:  47    -0.124125382982E+03   -0.14564E-01   -0.71758E-03  1213   0.197E-01    0.157E+00
RMM:  48    -0.124130224406E+03   -0.48414E-02   -0.67287E-03  1192   0.204E-01    0.107E+00
RMM:  49    -0.124139259390E+03   -0.90350E-02   -0.13218E-02  1248   0.274E-01    0.656E-01
RMM:  50    -0.124145043103E+03   -0.57837E-02   -0.12357E-02  1265   0.277E-01    0.366E-01
RMM:  51    -0.124151850552E+03   -0.68074E-02   -0.41005E-03  1282   0.192E-01    0.670E-01
RMM:  52    -0.124155576568E+03   -0.37260E-02   -0.87712E-04  1124   0.872E-02    0.713E-01
RMM:  53    -0.124164662116E+03   -0.90855E-02   -0.15271E-03  1089   0.907E-02    0.895E-01
RMM:  54    -0.124166068428E+03   -0.14063E-02   -0.22277E-03  1110   0.115E-01    0.921E-01
RMM:  55    -0.124167636447E+03   -0.15680E-02   -0.27687E-04   867   0.549E-02    0.930E-01
RMM:  56    -0.124171534463E+03   -0.38980E-02   -0.49596E-04   955   0.561E-02    0.908E-01
RMM:  57    -0.124173863240E+03   -0.23288E-02   -0.41237E-04   911   0.550E-02    0.875E-01
RMM:  58    -0.124171284131E+03    0.25791E-02   -0.73127E-05   759   0.267E-02    0.786E-01
RMM:  59    -0.124167798227E+03    0.34859E-02   -0.41013E-04   926   0.421E-02    0.599E-01
RMM:  60    -0.124167881639E+03   -0.83411E-04   -0.32090E-04   882   0.459E-02
   1 F= -.12416788E+03 E0= -.12415900E+03  d E =-.124168E+03  mag=    17.5990
 curvature:   0.00 expect dE= 0.000E+00 dE for cont linesearch  0.000E+00
 trial: gam= 0.00000 g(F)=  0.310E-03 g(S)=  0.000E+00 ort = 0.000E+00 (trialstep = 0.100E+01)
 search vector abs. value=  0.310E-03
 bond charge predicted
       N       E                     dE             d eps       ncg     rms          rms(c)
DAV:   1    -0.124165384616E+03    0.24136E-02   -0.41750E-02  1750   0.165E+00    0.314E-01
RMM:   2    -0.124367836934E+03   -0.20245E+00   -0.42463E-02  1414   0.501E-01    0.382E+00
RMM:   3    -0.124156794231E+03    0.21104E+00   -0.24435E-02  1293   0.392E-01    0.487E-01
RMM:   4    -0.124166342440E+03   -0.95482E-02   -0.30868E-03  1145   0.188E-01    0.281E-01
RMM:   5    -0.124167927448E+03   -0.15850E-02   -0.63841E-04   963   0.804E-02    0.532E-01
RMM:   6    -0.124166584952E+03    0.13425E-02   -0.91271E-04   983   0.805E-02    0.403E-01
RMM:   7    -0.124167081560E+03   -0.49661E-03   -0.46720E-04   888   0.529E-02    0.464E-01
RMM:   8    -0.124167355510E+03   -0.27395E-03   -0.64981E-04   922   0.593E-02    0.473E-01
RMM:   9    -0.124165437023E+03    0.19185E-02   -0.74804E-04   922   0.585E-02    0.377E-01
RMM:  10    -0.124164150925E+03    0.12861E-02   -0.19309E-04   799   0.347E-02    0.212E-01
RMM:  11    -0.124164153446E+03   -0.25215E-05   -0.93715E-05   771   0.339E-02
   2 F= -.12416415E+03 E0= -.12415378E+03  d E =0.372819E-02  mag=    17.5660
 trial-energy change:    0.003728  1 .order   -0.000053   -0.000310    0.000204
 step:   0.6024(harm=  0.6024)  dis= 0.00153  next Energy=  -124.167975 (dE=-0.933E-04)
 bond charge predicted
       N       E                     dE             d eps       ncg     rms          rms(c)
DAV:   1    -0.124165204470E+03   -0.10535E-02   -0.69933E-03  1680   0.649E-01    0.305E-01
RMM:   2    -0.124315902572E+03   -0.15070E+00   -0.27383E-02  1316   0.353E-01    0.252E+00
RMM:   3    -0.124163744843E+03    0.15216E+00   -0.18428E-02  1294   0.306E-01    0.384E-01
RMM:   4    -0.124165983584E+03   -0.22387E-02   -0.25378E-03  1192   0.157E-01    0.431E-01
RMM:   5    -0.124165423284E+03    0.56030E-03   -0.57733E-04   959   0.872E-02    0.198E-01
RMM:   6    -0.124165281786E+03    0.14150E-03   -0.11276E-04   767   0.381E-02    0.175E-01
RMM:   7    -0.124165149226E+03    0.13256E-03   -0.41005E-05   719   0.251E-02    0.747E-02
RMM:   8    -0.124165266585E+03   -0.11736E-03   -0.31905E-05   694   0.218E-02    0.743E-02
RMM:   9    -0.124165612953E+03   -0.34637E-03   -0.24372E-05   669   0.168E-02    0.715E-02
RMM:  10    -0.124166059772E+03   -0.44682E-03   -0.21993E-05   645   0.160E-02    0.313E-02
RMM:  11    -0.124167243000E+03   -0.11832E-02   -0.91885E-05   706   0.230E-02    0.348E-02
RMM:  12    -0.124168271861E+03   -0.10289E-02   -0.82079E-05   704   0.198E-02    0.348E-02
RMM:  13    -0.124169402968E+03   -0.11311E-02   -0.11459E-04   665   0.184E-02    0.480E-02
RMM:  14    -0.124169782132E+03   -0.37916E-03   -0.26126E-05   523   0.106E-02    0.102E-02
RMM:  15    -0.124170172696E+03   -0.39056E-03   -0.20933E-05   499   0.998E-03    0.633E-03
RMM:  16    -0.124170488297E+03   -0.31560E-03   -0.61492E-06   429   0.789E-03    0.476E-03
RMM:  17    -0.124170755197E+03   -0.26690E-03   -0.33041E-06   397   0.723E-03    0.586E-03
RMM:  18    -0.124170957097E+03   -0.20190E-03   -0.26257E-06   374   0.654E-03    0.408E-03
RMM:  19    -0.124171119964E+03   -0.16287E-03   -0.26559E-06   339   0.626E-03    0.303E-03
RMM:  20    -0.124171210592E+03   -0.90627E-04   -0.35567E-06   348   0.633E-03
   3 F= -.12417121E+03 E0= -.12416086E+03  d E =-.332895E-02  mag=    17.4786
 curvature:  -0.30 expect dE=-0.272E-04 dE for cont linesearch -0.130E-04
 ZBRENT: interpolating
 opt :   0.4385  next Energy=  -124.171220 (dE=-0.334E-02)
 bond charge predicted
       N       E                     dE             d eps       ncg     rms          rms(c)
DAV:   1    -0.124171226181E+03   -0.10622E-03   -0.10217E-03  1634   0.261E-01    0.232E-02
RMM:   2    -0.124171281427E+03   -0.55246E-04   -0.20179E-04   803   0.438E-02
   4 F= -.12417128E+03 E0= -.12416097E+03  d E =-.339979E-02  mag=    17.4785
 curvature:  -0.22 expect dE=-0.101E-04 dE for cont linesearch -0.114E-05
 ZBRENT: interpolating
 opt :   0.3613  next Energy=  -124.171283 (dE=-0.340E-02)
 bond charge predicted
       N       E                     dE             d eps       ncg     rms          rms(c)
DAV:   1    -0.124171309022E+03   -0.82841E-04   -0.11251E-03  1228   0.171E-01    0.110E-01
RMM:   2    -0.124203435237E+03   -0.32126E-01   -0.36311E-03  1201   0.129E-01    0.166E+00
RMM:   3    -0.124169151318E+03    0.34284E-01   -0.31414E-03  1204   0.144E-01    0.281E-01
RMM:   4    -0.124171040353E+03   -0.18890E-02   -0.53910E-04   967   0.826E-02    0.379E-02
RMM:   5    -0.124171233154E+03   -0.19280E-03   -0.96116E-05   760   0.417E-02    0.145E-02
RMM:   6    -0.124171242866E+03   -0.97116E-05   -0.13560E-05   659   0.173E-02
   5 F= -.12417124E+03 E0= -.12416088E+03  d E =-.336123E-02  mag=    17.4780
 curvature:  -0.33 expect dE=-0.165E-04 dE for cont linesearch -0.668E-05
 ZBRENT: bisectioning
 opt :   0.1806  next Energy=  -124.171265 (dE=-0.338E-02)
 bond charge predicted
       N       E                     dE             d eps       ncg     rms          rms(c)
DAV:   1    -0.124171229754E+03    0.34001E-05   -0.12550E-03  1602   0.291E-01    0.294E-02
RMM:   2    -0.124171629903E+03   -0.40015E-03   -0.27138E-04   900   0.521E-02    0.261E-01
RMM:   3    -0.124171212004E+03    0.41790E-03   -0.75362E-05   738   0.343E-02    0.766E-02
RMM:   4    -0.124171254150E+03   -0.42146E-04   -0.42835E-05   684   0.245E-02
   6 F= -.12417125E+03 E0= -.12416091E+03  d E =-.337251E-02  mag=    17.4777
 curvature:  -1.12 expect dE=-0.284E-04 dE for cont linesearch -0.116E-04
 ZBRENT: bisectioning
 opt :   0.0903  next Energy=  -124.171259 (dE=-0.338E-02)
 bond charge predicted
       N       E                     dE             d eps       ncg     rms          rms(c)
DAV:   1    -0.124171241892E+03   -0.29887E-04   -0.37123E-04  1306   0.155E-01    0.238E-02
RMM:   2    -0.124172450568E+03   -0.12087E-02   -0.16373E-04   822   0.416E-02    0.453E-01
RMM:   3    -0.124171014665E+03    0.14359E-02   -0.15674E-04   795   0.469E-02    0.337E-02
RMM:   4    -0.124171239203E+03   -0.22454E-03   -0.61016E-05   704   0.283E-02    0.384E-02
RMM:   5    -0.124171238865E+03    0.33758E-06   -0.10156E-05   618   0.144E-02
   7 F= -.12417124E+03 E0= -.12416090E+03  d E =-.335723E-02  mag=    17.4773
 curvature:  -0.44 expect dE=-0.498E-05 dE for cont linesearch -0.994E-06
 ZBRENT: bisectioning
 opt :   0.0452  next Energy=  -124.171240 (dE=-0.336E-02)
 bond charge predicted
       N       E                     dE             d eps       ncg     rms          rms(c)
DAV:   1    -0.124171233208E+03    0.59943E-05   -0.64366E-05   976   0.740E-02    0.853E-03
RMM:   2    -0.124171245181E+03   -0.11972E-04   -0.32996E-05   607   0.182E-02
   8 F= -.12417125E+03 E0= -.12416087E+03  d E =-.336354E-02  mag=    17.4771
 curvature:  -0.38 expect dE=-0.418E-05 dE for cont linesearch -0.560E-06
 trial: gam= 0.00000 g(F)=  0.111E-04 g(S)=  0.000E+00 ort =-0.214E-04 (trialstep = 0.809E+00)
 search vector abs. value=  0.111E-04
 reached required accuracy - stopping structural energy minimisation
 running on    8 total cores
 distrk:  each k-point on    8 cores,    1 groups
 distr:  one band on    4 cores,    2 groups
 using from now: INCAR     
 vasp.5.4.1 24Jun15 (build Jan 06 2016 13:10:00) complex                        
  
 POSCAR found type information on POSCAR  Sr Fe O 
 POSCAR found :  3 types and      20 ions
 scaLAPACK will be used

 ----------------------------------------------------------------------------- 
|                                                                             |
|           W    W    AA    RRRRR   N    N  II  N    N   GGGG   !!!           |
|           W    W   A  A   R    R  NN   N  II  NN   N  G    G  !!!           |
|           W    W  A    A  R    R  N N  N  II  N N  N  G       !!!           |
|           W WW W  AAAAAA  RRRRR   N  N N  II  N  N N  G  GGG   !            |
|           WW  WW  A    A  R   R   N   NN  II  N   NN  G    G                |
|           W    W  A    A  R    R  N    N  II  N    N   GGGG   !!!           |
|                                                                             |
|      For LVTOT=.TRUE. VASP.5.x writes the TOTAL local potential to          |
|      the file LOCPOT. If you want the Hartree contributions only, use       |
|      LVHAR=.TRUE. instead.                                                  |
|                                                                             |
 ----------------------------------------------------------------------------- 

 LDA part: xc-table for Ceperly-Alder, standard interpolation
 POSCAR found type information on POSCAR  Sr Fe O 
 POSCAR found :  3 types and      20 ions
 POSCAR, INCAR and KPOINTS ok, starting setup
 WARNING: small aliasing (wrap around) errors must be expected
 FFT: planning ...
 WAVECAR not read
 WARNING: chargedensity file is incomplete
 entering main loop
       N       E                     dE             d eps       ncg     rms          rms(c)
DAV:   1     0.144869404484E+04    0.14487E+04   -0.70767E+04  1496   0.106E+03
DAV:   2    -0.223054511303E+02   -0.14710E+04   -0.13991E+04  1382   0.382E+02
DAV:   3    -0.144619350742E+03   -0.12231E+03   -0.12010E+03  1560   0.119E+02
DAV:   4    -0.150145730408E+03   -0.55264E+01   -0.54981E+01  2016   0.254E+01
DAV:   5    -0.150622653230E+03   -0.47692E+00   -0.47661E+00  2288   0.445E+00    0.545E+01
RMM:   6    -0.272118472313E+03   -0.12150E+03   -0.58840E+02  1445   0.941E+01    0.909E+01
RMM:   7    -0.739455544943E+03   -0.46734E+03   -0.63130E+02  1617   0.498E+01    0.977E+01
RMM:   8    -0.184044305160E+03    0.55541E+03   -0.65152E+01  1340   0.296E+01    0.754E+01
RMM:   9    -0.122861331060E+03    0.61183E+02   -0.15561E+01  1337   0.157E+01    0.359E+01
RMM:  10    -0.121023250732E+03    0.18381E+01   -0.67272E+00  1360   0.926E+00    0.273E+01
RMM:  11    -0.123929080529E+03   -0.29058E+01   -0.19749E+00  1351   0.504E+00    0.250E+01
RMM:  12    -0.124590052012E+03   -0.66097E+00   -0.40831E+00  1332   0.682E+00    0.204E+01
RMM:  13    -0.122918219701E+03    0.16718E+01   -0.53187E+00  1354   0.690E+00    0.130E+01
RMM:  14    -0.123347617495E+03   -0.42940E+00   -0.99413E-01  1356   0.365E+00    0.101E+01
RMM:  15    -0.123696357869E+03   -0.34874E+00   -0.25746E-01  1498   0.166E+00    0.879E+00
RMM:  16    -0.124148873742E+03   -0.45252E+00   -0.10065E+00  1344   0.312E+00    0.713E+00
RMM:  17    -0.123808380183E+03    0.34049E+00   -0.90695E-01  1396   0.286E+00    0.541E+00
RMM:  18    -0.123685776764E+03    0.12260E+00   -0.25003E-01  1467   0.145E+00    0.498E+00
RMM:  19    -0.123590013193E+03    0.95764E-01   -0.12352E-01  1390   0.108E+00    0.398E+00
RMM:  20    -0.123542719121E+03    0.47294E-01   -0.13712E-01  1352   0.134E+00    0.273E+00
RMM:  21    -0.123596509714E+03   -0.53791E-01   -0.58209E-02  1411   0.809E-01    0.199E+00
RMM:  22    -0.123696269428E+03   -0.99760E-01   -0.83701E-02  1346   0.837E-01    0.159E+00
RMM:  23    -0.123970399629E+03   -0.27413E+00   -0.74822E-02  1359   0.796E-01    0.285E+00
RMM:  24    -0.123875685026E+03    0.94715E-01   -0.10944E-02  1359   0.307E-01    0.198E+00
RMM:  25    -0.123868470714E+03    0.72143E-02   -0.17924E-03  1264   0.103E-01    0.174E+00
RMM:  26    -0.124071188222E+03   -0.20272E+00   -0.25674E-02  1293   0.449E-01    0.299E+00
RMM:  27    -0.124182885061E+03   -0.11170E+00   -0.25541E-02  1288   0.456E-01    0.346E+00
RMM:  28    -0.124228654015E+03   -0.45769E-01   -0.16105E-02  1273   0.339E-01    0.366E+00
RMM:  29    -0.124236297020E+03   -0.76430E-02   -0.94632E-03  1255   0.248E-01    0.362E+00
RMM:  30    -0.124179231968E+03    0.57065E-01   -0.80950E-03  1255   0.226E-01    0.319E+00
RMM:  31    -0.124027925494E+03    0.15131E+00   -0.12299E-02  1290   0.242E-01    0.173E+00
RMM:  32    -0.124013039471E+03    0.14886E-01   -0.70794E-03  1287   0.260E-01    0.131E+00
RMM:  33    -0.124011643120E+03    0.13964E-02   -0.91379E-03  1291   0.270E-01    0.130E+00
RMM:  34    -0.124011439653E+03    0.20347E-03   -0.17628E-03  1193   0.138E-01    0.133E+00
RMM:  35    -0.124019910120E+03   -0.84705E-02   -0.18535E-03  1202   0.109E-01    0.135E+00
RMM:  36    -0.124071451325E+03   -0.51541E-01   -0.85614E-03  1254   0.240E-01    0.246E+00
RMM:  37    -0.124095275337E+03   -0.23824E-01   -0.31884E-03  1216   0.188E-01    0.263E+00
RMM:  38    -0.124095549396E+03   -0.27406E-03   -0.59412E-04   990   0.772E-02    0.265E+00
RMM:  39    -0.124087283179E+03    0.82662E-02   -0.10845E-04   783   0.394E-02    0.260E+00
RMM:  40    -0.124052853657E+03    0.34430E-01   -0.58272E-03  1265   0.197E-01    0.193E+00
RMM:  41    -0.124087399454E+03   -0.34546E-01   -0.44763E-03  1220   0.200E-01    0.203E+00
RMM:  42    -0.124108047725E+03   -0.20648E-01   -0.25986E-03  1166   0.143E-01    0.198E+00
RMM:  43    -0.124124227789E+03   -0.16180E-01   -0.65133E-03  1230   0.204E-01    0.179E+00
RMM:  44    -0.124137983321E+03   -0.13756E-01   -0.30931E-03  1187   0.172E-01    0.178E+00
RMM:  45    -0.124142279948E+03   -0.42966E-02   -0.14495E-03  1092   0.955E-02    0.165E+00
RMM:  46    -0.124143988286E+03   -0.17083E-02   -0.53888E-04   993   0.612E-02    0.152E+00
RMM:  47    -0.124148019301E+03   -0.40310E-02   -0.88811E-04  1024   0.734E-02    0.142E+00
RMM:  48    -0.124157489744E+03   -0.94704E-02   -0.35366E-03  1212   0.156E-01    0.120E+00
RMM:  49    -0.124161112903E+03   -0.36232E-02   -0.28619E-03  1211   0.140E-01    0.114E+00
RMM:  50    -0.124163023067E+03   -0.19102E-02   -0.42539E-04   995   0.604E-02    0.114E+00
RMM:  51    -0.124158102861E+03    0.49202E-02   -0.59295E-04  1036   0.711E-02    0.102E+00
RMM:  52    -0.124157557147E+03    0.54571E-03   -0.11645E-04   789   0.370E-02    0.935E-01
RMM:  53    -0.124155399997E+03    0.21572E-02   -0.11723E-03  1100   0.761E-02    0.636E-01
RMM:  54    -0.124161357101E+03   -0.59571E-02   -0.22745E-03  1213   0.128E-01    0.502E-01
RMM:  55    -0.124161787802E+03   -0.43070E-03   -0.11541E-03  1110   0.972E-02    0.242E-01
RMM:  56    -0.124165685896E+03   -0.38981E-02   -0.64771E-04   999   0.726E-02    0.597E-01
RMM:  57    -0.124166178107E+03   -0.49221E-03   -0.94167E-04  1073   0.682E-02    0.876E-01
RMM:  58    -0.124163574524E+03    0.26036E-02   -0.10248E-03  1033   0.964E-02    0.277E-01
RMM:  59    -0.124165412380E+03   -0.18379E-02   -0.35407E-04   893   0.553E-02    0.267E-01
RMM:  60    -0.124166853190E+03   -0.14408E-02   -0.19112E-04   850   0.388E-02    0.196E-01
RMM:  61    -0.124168223827E+03   -0.13706E-02   -0.14075E-04   816   0.320E-02    0.138E-01
RMM:  62    -0.124169132167E+03   -0.90834E-03   -0.55352E-05   720   0.218E-02    0.166E-01
RMM:  63    -0.124169409943E+03   -0.27778E-03   -0.38444E-05   658   0.170E-02    0.106E-01
RMM:  64    -0.124169923479E+03   -0.51354E-03   -0.45837E-05   711   0.174E-02    0.889E-02
RMM:  65    -0.124170427270E+03   -0.50379E-03   -0.29600E-05   654   0.170E-02    0.102E-01
RMM:  66    -0.124170793118E+03   -0.36585E-03   -0.21227E-05   642   0.139E-02    0.101E-01
RMM:  67    -0.124171007124E+03   -0.21401E-03   -0.14769E-05   524   0.110E-02    0.931E-02
RMM:  68    -0.124171154995E+03   -0.14787E-03   -0.15358E-05   562   0.108E-02    0.788E-02
RMM:  69    -0.124171284368E+03   -0.12937E-03   -0.18331E-05   566   0.117E-02    0.943E-02
RMM:  70    -0.124171273569E+03    0.10799E-04   -0.78689E-06   501   0.984E-03
   1 F= -.12417127E+03 E0= -.12416099E+03  d E =-.124171E+03  mag=    17.4968
 curvature:   0.00 expect dE= 0.000E+00 dE for cont linesearch  0.000E+00
 trial: gam= 0.00000 g(F)=  0.808E-05 g(S)=  0.000E+00 ort = 0.000E+00 (trialstep = 0.100E+01)
 search vector abs. value=  0.808E-05
 reached required accuracy - stopping structural energy minimisation
