       N       E                     dE             d eps       ncg     rms          rms(c)
DAV:   1     0.144869404484E+04    0.14487E+04   -0.70767E+04  1496   0.106E+03
DAV:   2    -0.223054511303E+02   -0.14710E+04   -0.13991E+04  1382   0.382E+02
DAV:   3    -0.144619350742E+03   -0.12231E+03   -0.12010E+03  1560   0.119E+02
DAV:   4    -0.150145730408E+03   -0.55264E+01   -0.54981E+01  2016   0.254E+01
DAV:   5    -0.150622653230E+03   -0.47692E+00   -0.47661E+00  2288   0.445E+00    0.545E+01
RMM:   6    -0.272118472313E+03   -0.12150E+03   -0.58840E+02  1445   0.941E+01    0.909E+01
RMM:   7    -0.739455544943E+03   -0.46734E+03   -0.63130E+02  1617   0.498E+01    0.977E+01
RMM:   8    -0.184044305160E+03    0.55541E+03   -0.65152E+01  1340   0.296E+01    0.754E+01
RMM:   9    -0.122861331060E+03    0.61183E+02   -0.15561E+01  1337   0.157E+01    0.359E+01
RMM:  10    -0.121023250732E+03    0.18381E+01   -0.67272E+00  1360   0.926E+00    0.273E+01
RMM:  11    -0.123929080529E+03   -0.29058E+01   -0.19749E+00  1351   0.504E+00    0.250E+01
RMM:  12    -0.124590052012E+03   -0.66097E+00   -0.40831E+00  1332   0.682E+00    0.204E+01
RMM:  13    -0.122918219701E+03    0.16718E+01   -0.53187E+00  1354   0.690E+00    0.130E+01
RMM:  14    -0.123347617495E+03   -0.42940E+00   -0.99413E-01  1356   0.365E+00    0.101E+01
RMM:  15    -0.123696357869E+03   -0.34874E+00   -0.25746E-01  1498   0.166E+00    0.879E+00
RMM:  16    -0.124148873742E+03   -0.45252E+00   -0.10065E+00  1344   0.312E+00    0.713E+00
RMM:  17    -0.123808380183E+03    0.34049E+00   -0.90695E-01  1396   0.286E+00    0.541E+00
RMM:  18    -0.123685776764E+03    0.12260E+00   -0.25003E-01  1467   0.145E+00    0.498E+00
RMM:  19    -0.123590013193E+03    0.95764E-01   -0.12352E-01  1390   0.108E+00    0.398E+00
RMM:  20    -0.123542719121E+03    0.47294E-01   -0.13712E-01  1352   0.134E+00    0.273E+00
RMM:  21    -0.123596509714E+03   -0.53791E-01   -0.58209E-02  1411   0.809E-01    0.199E+00
RMM:  22    -0.123696269428E+03   -0.99760E-01   -0.83701E-02  1346   0.837E-01    0.159E+00
RMM:  23    -0.123970399629E+03   -0.27413E+00   -0.74822E-02  1359   0.796E-01    0.285E+00
RMM:  24    -0.123875685026E+03    0.94715E-01   -0.10944E-02  1359   0.307E-01    0.198E+00
RMM:  25    -0.123868470714E+03    0.72143E-02   -0.17924E-03  1264   0.103E-01    0.174E+00
RMM:  26    -0.124071188222E+03   -0.20272E+00   -0.25674E-02  1293   0.449E-01    0.299E+00
RMM:  27    -0.124182885061E+03   -0.11170E+00   -0.25541E-02  1288   0.456E-01    0.346E+00
RMM:  28    -0.124228654015E+03   -0.45769E-01   -0.16105E-02  1273   0.339E-01    0.366E+00
RMM:  29    -0.124236297020E+03   -0.76430E-02   -0.94632E-03  1255   0.248E-01    0.362E+00
RMM:  30    -0.124179231968E+03    0.57065E-01   -0.80950E-03  1255   0.226E-01    0.319E+00
RMM:  31    -0.124027925494E+03    0.15131E+00   -0.12299E-02  1290   0.242E-01    0.173E+00
RMM:  32    -0.124013039471E+03    0.14886E-01   -0.70794E-03  1287   0.260E-01    0.131E+00
RMM:  33    -0.124011643120E+03    0.13964E-02   -0.91379E-03  1291   0.270E-01    0.130E+00
RMM:  34    -0.124011439653E+03    0.20347E-03   -0.17628E-03  1193   0.138E-01    0.133E+00
RMM:  35    -0.124019910120E+03   -0.84705E-02   -0.18535E-03  1202   0.109E-01    0.135E+00
RMM:  36    -0.124071451325E+03   -0.51541E-01   -0.85614E-03  1254   0.240E-01    0.246E+00
RMM:  37    -0.124095275337E+03   -0.23824E-01   -0.31884E-03  1216   0.188E-01    0.263E+00
RMM:  38    -0.124095549396E+03   -0.27406E-03   -0.59412E-04   990   0.772E-02    0.265E+00
RMM:  39    -0.124087283179E+03    0.82662E-02   -0.10845E-04   783   0.394E-02    0.260E+00
RMM:  40    -0.124052853657E+03    0.34430E-01   -0.58272E-03  1265   0.197E-01    0.193E+00
RMM:  41    -0.124087399454E+03   -0.34546E-01   -0.44763E-03  1220   0.200E-01    0.203E+00
RMM:  42    -0.124108047725E+03   -0.20648E-01   -0.25986E-03  1166   0.143E-01    0.198E+00
RMM:  43    -0.124124227789E+03   -0.16180E-01   -0.65133E-03  1230   0.204E-01    0.179E+00
RMM:  44    -0.124137983321E+03   -0.13756E-01   -0.30931E-03  1187   0.172E-01    0.178E+00
RMM:  45    -0.124142279948E+03   -0.42966E-02   -0.14495E-03  1092   0.955E-02    0.165E+00
RMM:  46    -0.124143988286E+03   -0.17083E-02   -0.53888E-04   993   0.612E-02    0.152E+00
RMM:  47    -0.124148019301E+03   -0.40310E-02   -0.88811E-04  1024   0.734E-02    0.142E+00
RMM:  48    -0.124157489744E+03   -0.94704E-02   -0.35366E-03  1212   0.156E-01    0.120E+00
RMM:  49    -0.124161112903E+03   -0.36232E-02   -0.28619E-03  1211   0.140E-01    0.114E+00
RMM:  50    -0.124163023067E+03   -0.19102E-02   -0.42539E-04   995   0.604E-02    0.114E+00
RMM:  51    -0.124158102861E+03    0.49202E-02   -0.59295E-04  1036   0.711E-02    0.102E+00
RMM:  52    -0.124157557147E+03    0.54571E-03   -0.11645E-04   789   0.370E-02    0.935E-01
RMM:  53    -0.124155399997E+03    0.21572E-02   -0.11723E-03  1100   0.761E-02    0.636E-01
RMM:  54    -0.124161357101E+03   -0.59571E-02   -0.22745E-03  1213   0.128E-01    0.502E-01
RMM:  55    -0.124161787802E+03   -0.43070E-03   -0.11541E-03  1110   0.972E-02    0.242E-01
RMM:  56    -0.124165685896E+03   -0.38981E-02   -0.64771E-04   999   0.726E-02    0.597E-01
RMM:  57    -0.124166178107E+03   -0.49221E-03   -0.94167E-04  1073   0.682E-02    0.876E-01
RMM:  58    -0.124163574524E+03    0.26036E-02   -0.10248E-03  1033   0.964E-02    0.277E-01
RMM:  59    -0.124165412380E+03   -0.18379E-02   -0.35407E-04   893   0.553E-02    0.267E-01
RMM:  60    -0.124166853190E+03   -0.14408E-02   -0.19112E-04   850   0.388E-02    0.196E-01
RMM:  61    -0.124168223827E+03   -0.13706E-02   -0.14075E-04   816   0.320E-02    0.138E-01
RMM:  62    -0.124169132167E+03   -0.90834E-03   -0.55352E-05   720   0.218E-02    0.166E-01
RMM:  63    -0.124169409943E+03   -0.27778E-03   -0.38444E-05   658   0.170E-02    0.106E-01
RMM:  64    -0.124169923479E+03   -0.51354E-03   -0.45837E-05   711   0.174E-02    0.889E-02
RMM:  65    -0.124170427270E+03   -0.50379E-03   -0.29600E-05   654   0.170E-02    0.102E-01
RMM:  66    -0.124170793118E+03   -0.36585E-03   -0.21227E-05   642   0.139E-02    0.101E-01
RMM:  67    -0.124171007124E+03   -0.21401E-03   -0.14769E-05   524   0.110E-02    0.931E-02
RMM:  68    -0.124171154995E+03   -0.14787E-03   -0.15358E-05   562   0.108E-02    0.788E-02
RMM:  69    -0.124171284368E+03   -0.12937E-03   -0.18331E-05   566   0.117E-02    0.943E-02
RMM:  70    -0.124171273569E+03    0.10799E-04   -0.78689E-06   501   0.984E-03
   1 F= -.12417127E+03 E0= -.12416099E+03  d E =-.124171E+03  mag=    17.4968
