 vasp.5.4.1 24Jun15 (build Jan 06 2016 13:10:00) complex                        
  
 executed on           IFC91_ompi date 2016.03.08  10:48:31
 running on    8 total cores
 distrk:  each k-point on    8 cores,    1 groups
 distr:  one band on NCORES_PER_BAND=   4 cores,    2 groups


--------------------------------------------------------------------------------------------------------


 INCAR:
 POTCAR:    PAW Sr                                
 POTCAR:    PAW Fe                                
 POTCAR:    PAW O_s                               
 POTCAR:    PAW Sr                                
   VRHFIN =Sr: 4s4p5s                                                           
   LEXCH  = 91                                                                  
   EATOM  =   843.6740 eV,   62.0083 Ry                                         
                                                                                
   TITEL  = PAW Sr                                                              
   LULTRA =        F    use ultrasoft PP ?                                      
   IUNSCR =        1    unscreen: 0-lin 1-nonlin 2-no                           
   RPACOR =    2.200    partial core radius                                     
   POMASS =   87.620; ZVAL   =   10.000    mass and valenz                      
   RCORE  =    2.500    outmost cutoff radius                                   
   RWIGS  =    4.040; RWIGS  =    2.138    wigner-seitz radius (au A)           
   ENMAX  =  226.196; ENMIN  =  169.647 eV                                      
   RCLOC  =    2.201    cutoff for local pot                                    
   LCOR   =        T    correct aug charges                                     
   LPAW   =        T    paw PP                                                  
   EAUG   =  366.804                                                            
   DEXC   =     .000                                                            
   RMAX   =    3.066    core radius for proj-oper                               
   RDEP   =    2.562    core radius for depl-charge                             
   QCUT   =   -4.077; QGAM   =    8.155    optimization parameters              
                                                                                
   Description                                                                  
     l     E      TYP  RCUT    TYP  RCUT                                        
     0   .000     23  2.500                                                     
     0   .000     23  2.500                                                     
     1   .000     23  2.500                                                     
     1   .000     23  2.500                                                     
     2   .000     23  2.500                                                     
     2   .000     23  2.500                                                     
  local pseudopotential read in
  partial core-charges read in
  atomic valenz-charges read in
  non local Contribution for L=           0  read in
    real space projection operators read in
  non local Contribution for L=           0  read in
    real space projection operators read in
  non local Contribution for L=           1  read in
    real space projection operators read in
  non local Contribution for L=           1  read in
    real space projection operators read in
  non local Contribution for L=           2  read in
    real space projection operators read in
  non local Contribution for L=           2  read in
    real space projection operators read in
    PAW grid and wavefunctions read in
 
   number of l-projection  operators is LMAX  =           6
   number of lm-projection operators is LMMAX =          18
 
 POTCAR:    PAW Fe                                
   VRHFIN =Fe:  3pd7s1                                                          
   LEXCH  = 91                                                                  
   EATOM  =  2459.3729 eV,  180.7588 Ry                                         
                                                                                
   TITEL  = PAW Fe                                                              
   LULTRA =        F    use ultrasoft PP ?                                      
   IUNSCR =        1    unscreen: 0-lin 1-nonlin 2-no                           
   RPACOR =    1.750    partial core radius                                     
   POMASS =   55.847; ZVAL   =   14.000    mass and valenz                      
   RCORE  =    2.200    outmost cutoff radius                                   
   RWIGS  =    2.200; RWIGS  =    1.164    wigner-seitz radius (au A)           
   ENMAX  =  293.258; ENMIN  =  219.944 eV                                      
   RCLOC  =    1.701    cutoff for local pot                                    
   LCOR   =        T    correct aug charges                                     
   LPAW   =        T    paw PP                                                  
   EAUG   =  578.342                                                            
   DEXC   =     .000                                                            
   RMAX   =    2.692    core radius for proj-oper                               
   RAUG   =    1.300    factor for augmentation sphere                          
   RDEP   =    2.296    core radius for depl-charge                             
   QCUT   =   -4.643; QGAM   =    9.285    optimization parameters              
                                                                                
   Description                                                                  
     l     E      TYP  RCUT    TYP  RCUT                                        
     1   .000     23  2.000                                                     
     1  -.400     23  2.000                                                     
     2   .000     23  2.200                                                     
     2   .000     23  2.200                                                     
     0   .000     23  2.000                                                     
     0  2.000     23  2.000                                                     
     3   .000      7   .000                                                     
  local pseudopotential read in
  partial core-charges read in
  atomic valenz-charges read in
  non local Contribution for L=           1  read in
    real space projection operators read in
  non local Contribution for L=           1  read in
    real space projection operators read in
  non local Contribution for L=           2  read in
    real space projection operators read in
  non local Contribution for L=           2  read in
    real space projection operators read in
  non local Contribution for L=           0  read in
    real space projection operators read in
  non local Contribution for L=           0  read in
    real space projection operators read in
    PAW grid and wavefunctions read in
 
   number of l-projection  operators is LMAX  =           6
   number of lm-projection operators is LMMAX =          18
 
 POTCAR:    PAW O_s                               
   VRHFIN =O: s2p4                                                              
   LEXCH  = 91                                                                  
   EATOM  =   433.0277 eV,   31.8266 Ry                                         
                                                                                
   TITEL  = PAW O_s                                                             
   LULTRA =        F    use ultrasoft PP ?                                      
   IUNSCR =        0    unscreen: 0-lin 1-nonlin 2-no                           
   RPACOR =     .000    partial core radius                                     
   POMASS =   16.000; ZVAL   =    6.000    mass and valenz                      
   RCORE  =    1.900    outmost cutoff radius                                   
   RWIGS  =    1.700; RWIGS  =     .900    wigner-seitz radius (au A)           
   ENMAX  =  250.000; ENMIN  =  202.667 eV                                      
   RCLOC  =    1.014    cutoff for local pot                                    
   LCOR   =        T    correct aug charges                                     
   LPAW   =        T    paw PP                                                  
   EAUG   =  412.352                                                            
   DEXC   =     .000                                                            
   RMAX   =    2.805    core radius for proj-oper                               
   RDEP   =    2.002    core radius for depl-charge                             
   QCUT   =   -4.457; QGAM   =    8.913    optimization parameters              
                                                                                
   Description                                                                  
     l     E      TYP  RCUT    TYP  RCUT                                        
     0   .000     23  1.500                                                     
     0   .000     23  1.500                                                     
     1   .000     23  1.900                                                     
     1   .000     23  1.900                                                     
     2   .000      7   .000                                                     
  local pseudopotential read in
  atomic valenz-charges read in
  non local Contribution for L=           0  read in
    real space projection operators read in
  non local Contribution for L=           0  read in
    real space projection operators read in
  non local Contribution for L=           1  read in
    real space projection operators read in
  non local Contribution for L=           1  read in
    real space projection operators read in
    PAW grid and wavefunctions read in
 
   number of l-projection  operators is LMAX  =           4
   number of lm-projection operators is LMMAX =           8
 
 Optimization of the real space projectors (new method)

 maximal supplied QI-value         = 15.12
 optimisation between [QCUT,QGAM] = [  8.77, 17.69] = [ 21.53, 87.61] Ry 
 Optimized for a Real-space Cutoff    1.69 Angstroem

   l    n(q)    QCUT    max X(q) W(low)/X(q) W(high)/X(q)  e(spline) 
   0      9     8.768     6.754    0.18E-04    0.21E-05    0.67E-08
   0      9     8.768    11.260    0.63E-04    0.78E-05    0.39E-07
   1      8     8.768     3.800    0.94E-05    0.21E-04    0.25E-07
   1      8     8.768    42.936    0.24E-03    0.36E-03    0.23E-06
   2      8     8.768     4.943    0.61E-04    0.13E-04    0.38E-07
   2      8     8.768    88.807    0.23E-03    0.32E-03    0.20E-06
 Optimization of the real space projectors (new method)

 maximal supplied QI-value         = 17.01
 optimisation between [QCUT,QGAM] = [  8.84, 17.69] = [ 21.90, 87.61] Ry 
 Optimized for a Real-space Cutoff    1.55 Angstroem

   l    n(q)    QCUT    max X(q) W(low)/X(q) W(high)/X(q)  e(spline) 
   1      8     8.844     4.548    0.31E-04    0.33E-04    0.33E-07
   1      8     8.844     5.232    0.39E-03    0.50E-04    0.28E-06
   2      7     8.844     3.957    0.38E-04    0.11E-03    0.44E-07
   2      7     8.844    29.816    0.43E-03    0.99E-03    0.21E-06
   0      8     8.844    23.438    0.18E-04    0.19E-04    0.85E-08
   0      8     8.844    39.418    0.66E-04    0.15E-03    0.47E-07
 Optimization of the real space projectors (new method)

 maximal supplied QI-value         = 19.84
 optimisation between [QCUT,QGAM] = [  8.73, 17.66] = [ 21.34, 87.33] Ry 
 Optimized for a Real-space Cutoff    1.46 Angstroem

   l    n(q)    QCUT    max X(q) W(low)/X(q) W(high)/X(q)  e(spline) 
   0      8     8.731     3.485    0.23E-04    0.53E-05    0.51E-07
   0      8     8.731    30.133    0.28E-03    0.36E-03    0.17E-06
   1      7     8.731     3.755    0.11E-03    0.11E-03    0.69E-07
   1      7     8.731    24.805    0.50E-03    0.59E-03    0.12E-06
  PAW Sr                                :
 energy of atom  1       EATOM= -843.6740
 kinetic energy error for atom=    0.0094 (will be added to EATOM!!)
  PAW Fe                                :
 energy of atom  2       EATOM=-2459.3729
 kinetic energy error for atom=    0.0682 (will be added to EATOM!!)
  PAW O_s                               :
 energy of atom  3       EATOM= -433.0277
 kinetic energy error for atom=    0.0347 (will be added to EATOM!!)
 
 
 POSCAR: Sr1 Fe1 O3                              
  positions in direct lattice
  velocities in cartesian coordinates
 exchange correlation table for  LEXCH =        7
   RHO(1)=    0.500       N(1)  =     2000
   RHO(2)=  100.500       N(2)  =     4000

 VTST: version 3.1, (03/28/14)

 CHAIN: initializing optimizer
 
 OPT: Using VASP Conjugate-Gradient optimizer
 CHAIN: Read ICHAIN            0
 
 POSCAR: Sr1 Fe1 O3                              
  positions in direct lattice
  velocities in cartesian coordinates
 


--------------------------------------------------------------------------------------------------------


 ion  position               nearest neighbor table
   1  0.500  0.500  0.064-  17 2.75  17 2.75  17 2.75  17 2.75  14 2.75  13 2.75  10 2.75  13 2.75
                             9 2.75  14 2.75  10 2.75   9 2.75   5 3.37   6 3.37   6 3.37   6 3.37
   2  0.500  0.500  0.191-  18 2.75  18 2.75  18 2.75  18 2.75  14 2.75  10 2.75  10 2.75  14 2.75
                            15 2.76  15 2.76  11 2.76  11 2.76   6 3.37   6 3.37   6 3.37   6 3.37
   3  0.500  0.500  0.319-  11 2.74  15 2.74  11 2.74  15 2.74  19 2.75  19 2.75  19 2.75  19 2.75
                            16 2.80  16 2.80  12 2.80  12 2.80   7 3.35   7 3.35   7 3.35   7 3.35
   4  0.500  0.500  0.441-  12 2.60  12 2.60  16 2.60  16 2.60  20 2.76  20 2.76  20 2.76  20 2.76
                             8 3.23   8 3.23   8 3.23   8 3.23   3 3.73
   5  0.000  0.000  0.000-   9 1.94  13 1.94  13 1.94   9 1.94  17 1.94   1 3.37   1 3.37   1 3.37
                             1 3.37
   6  0.000  0.000  0.127-  10 1.94  14 1.94  14 1.94  10 1.94  17 1.94  18 1.94   1 3.37   2 3.37
                             1 3.37   1 3.37   2 3.37   2 3.37   1 3.37   2 3.37
   7  0.000  0.000  0.256-  11 1.94  15 1.94  15 1.94  11 1.94  19 1.97  18 1.98   3 3.35   3 3.35
                             3 3.35   3 3.35   2 3.39   2 3.39   2 3.39   2 3.39
   8  0.000  0.000  0.385-  12 1.94  16 1.94  16 1.94  12 1.94  20 1.95  19 1.98   4 3.23   4 3.23
                             4 3.23   4 3.23   3 3.42   3 3.42   3 3.42   3 3.42
   9  0.500  0.000  0.000-   5 1.94   5 1.94   1 2.75   1 2.75
  10  0.500  0.000  0.127-   6 1.94   6 1.94   1 2.75   1 2.75   2 2.75   2 2.75
  11  0.500  0.000  0.255-   7 1.94   7 1.94   3 2.74   3 2.74   2 2.76   2 2.76
  12  0.500  0.000  0.384-   8 1.94   8 1.94   4 2.60   4 2.60   3 2.80   3 2.80
  13  0.000  0.500  0.000-   5 1.94   5 1.94   1 2.75   1 2.75
  14  0.000  0.500  0.127-   6 1.94   6 1.94   2 2.75   1 2.75   1 2.75   2 2.75
  15  0.000  0.500  0.255-   7 1.94   7 1.94   3 2.74   3 2.74   2 2.76   2 2.76
  16  0.000  0.500  0.384-   8 1.94   8 1.94   4 2.60   4 2.60   3 2.80   3 2.80
  17  0.000  0.000  0.064-   5 1.94   6 1.94   1 2.75   1 2.75   1 2.75   1 2.75
  18  0.000  0.000  0.191-   6 1.94   7 1.98   2 2.75   2 2.75   2 2.75   2 2.75
  19  0.000  0.000  0.320-   7 1.97   8 1.98   3 2.75   3 2.75   3 2.75   3 2.75
  20  0.000  0.000  0.449-   8 1.95   4 2.76   4 2.76   4 2.76   4 2.76
 
  LATTYP: Found a simple tetragonal cell.
 ALAT       =     3.8868081692
 C/A-ratio  =     7.8592076961
  
  Lattice vectors:
  
 A1 = (   3.8868081692,   0.0000000000,   0.0000000000)
 A2 = (   0.0000000000,   3.8868081692,   0.0000000000)
 A3 = (   0.0000000000,   0.0000000000,  30.5472326770)


Analysis of symmetry for initial positions (statically):
=====================================================================
 Subroutine PRICEL returns:
 Original cell was already a primitive cell.
 

 Routine SETGRP: Setting up the symmetry group for a 
 simple tetragonal supercell.


 Subroutine GETGRP returns: Found  8 space group operations
 (whereof  8 operations were pure point group operations)
 out of a pool of 16 trial point group operations.


The static configuration has the point symmetry C_4v.


Analysis of symmetry for dynamics (positions and initial velocities):
=====================================================================
 Subroutine PRICEL returns:
 Original cell was already a primitive cell.
 

 Routine SETGRP: Setting up the symmetry group for a 
 simple tetragonal supercell.


 Subroutine GETGRP returns: Found  8 space group operations
 (whereof  8 operations were pure point group operations)
 out of a pool of 16 trial point group operations.


The dynamic configuration has the point symmetry C_4v.


Analysis of constrained symmetry for selective dynamics:
=====================================================================
 Subroutine PRICEL returns:
 Original cell was already a primitive cell.
 

 Routine SETGRP: Setting up the symmetry group for a 
 simple tetragonal supercell.


 Subroutine GETGRP returns: Found  8 space group operations
 (whereof  8 operations were pure point group operations)
 out of a pool of 16 trial point group operations.


The constrained configuration has the point symmetry C_4v.


Analysis of structural, dynamic, and magnetic symmetry:
=====================================================================
 Subroutine PRICEL returns:
 Original cell was already a primitive cell.
 

 Routine SETGRP: Setting up the symmetry group for a 
 simple tetragonal supercell.


 Subroutine GETGRP returns: Found  8 space group operations
 (whereof  8 operations were pure point group operations)
 out of a pool of 16 trial point group operations.


The magnetic configuration has the point symmetry C_4v.


 Subroutine INISYM returns: Found  8 space group operations
 (whereof  8 operations are pure point group operations),
 and found     1 'primitive' translations

 
 
 KPOINTS: Automatic Mesh                          

Automatic generation of k-mesh.
Space group operators:
 irot       det(A)        alpha          n_x          n_y          n_z        tau_x        tau_y        tau_z
    1     1.000000     0.000001     1.000000     0.000000     0.000000     0.000000     0.000000     0.000000
    2     1.000000    90.000000     0.000000     0.000000    -1.000000     0.000000     0.000000     0.000000
    3     1.000000   180.000000     0.000000     0.000000     1.000000     0.000000     0.000000     0.000000
    4     1.000000    90.000000     0.000000     0.000000     1.000000     0.000000     0.000000     0.000000
    5    -1.000000   180.000000     0.000000     1.000000     0.000000     0.000000     0.000000     0.000000
    6    -1.000000   180.000000     0.707107     0.707107     0.000000     0.000000     0.000000     0.000000
    7    -1.000000   180.000000     1.000000     0.000000     0.000000     0.000000     0.000000     0.000000
    8    -1.000000   180.000000     0.707107    -0.707107     0.000000     0.000000     0.000000     0.000000
 
 Subroutine IBZKPT returns following result:
 ===========================================
 
 Found      3 irreducible k-points:
 
 Following reciprocal coordinates:
            Coordinates               Weight
  0.125000  0.125000  0.000000      4.000000
  0.375000  0.125000  0.000000      8.000000
  0.375000  0.375000  0.000000      4.000000
 
 Following cartesian coordinates:
            Coordinates               Weight
  0.032160  0.032160  0.000000      4.000000
  0.096480  0.032160  0.000000      8.000000
  0.096480  0.096480  0.000000      4.000000
 


--------------------------------------------------------------------------------------------------------




 Dimension of arrays:
   k-points           NKPTS =      3   k-points in BZ     NKDIM =      3   number of bands    NBANDS=    110
   number of dos      NEDOS =    301   number of ions     NIONS =     20
   non local maximal  LDIM  =      6   non local SUM 2l+1 LMDIM =     18
   total plane-waves  NPLWV =  35840
   max r-space proj   IRMAX =   1623   max aug-charges    IRDMAX=   4753
   dimension x,y,z NGX =    16 NGY =   16 NGZ =  140
   dimension x,y,z NGXF=    32 NGYF=   32 NGZF=  280
   support grid    NGXF=    32 NGYF=   32 NGZF=  280
   ions per type =               4   4  12
 NGX,Y,Z   is equivalent  to a cutoff of   6.84,  6.84,  7.62 a.u.
 NGXF,Y,Z  is equivalent  to a cutoff of  13.69, 13.69, 15.24 a.u.


 I would recommend the setting:
   dimension x,y,z NGX =    16 NGY =   16 NGZ =  129
 SYSTEM =  unknown system                          
 POSCAR =  Sr1 Fe1 O3                              

 Startparameter for this run:
   NWRITE =      2    write-flag & timer
   PREC   = normal    normal or accurate (medium, high low for compatibility)
   ISTART =      0    job   : 0-new  1-cont  2-samecut
   ICHARG =      1    charge: 1-file 2-atom 10-const
   ISPIN  =      2    spin polarized calculation?
   LNONCOLLINEAR =      F non collinear calculations
   LSORBIT =      F    spin-orbit coupling
   INIWAV =      1    electr: 0-lowe 1-rand  2-diag
   LASPH  =      F    aspherical Exc in radial PAW
   METAGGA=      F    non-selfconsistent MetaGGA calc.

 Electronic Relaxation 1
   ENCUT  =  300.0 eV  22.05 Ry    4.70 a.u.   5.49  5.49 43.14*2*pi/ulx,y,z
   ENINI  =  300.0     initial cutoff
   ENAUG  =  578.3 eV  augmentation charge cutoff
   NELM   =    100;   NELMIN=  2; NELMDL= -5     # of ELM steps 
   EDIFF  = 0.1E-03   stopping-criterion for ELM
   LREAL  =      T    real-space projection
   NLSPLINE    = F    spline interpolate recip. space projectors
   LCOMPAT=      F    compatible to vasp.4.4
   GGA_COMPAT  = T    GGA compatible to vasp.4.4-vasp.4.6
   LMAXPAW     = -100 max onsite density
   LMAXMIX     =    4 max onsite mixed and CHGCAR
   VOSKOWN=      0    Vosko Wilk Nusair interpolation
   ROPT   =   -0.00050  -0.00050  -0.00050
 Ionic relaxation
   EDIFFG = -.1E-01   stopping-criterion for IOM
   NSW    =     99    number of steps for IOM
   NBLOCK =      1;   KBLOCK =     99    inner block; outer block 
   IBRION =      2    ionic relax: 0-MD 1-quasi-New 2-CG
   NFREE  =      1    steps in history (QN), initial steepest desc. (CG)
   ISIF   =      0    stress and relaxation
   IWAVPR =     11    prediction:  0-non 1-charg 2-wave 3-comb
   ISYM   =      2    0-nonsym 1-usesym 2-fastsym
   LCORR  =      T    Harris-Foulkes like correction to forces

   POTIM  = 0.5000    time-step for ionic-motion
   TEIN   =    0.0    initial temperature
   TEBEG  =    0.0;   TEEND  =   0.0 temperature during run
   SMASS  =  -3.00    Nose mass-parameter (am)
   estimated Nose-frequenzy (Omega)   =  0.10E-29 period in steps =****** mass=  -0.345E-27a.u.
   SCALEE = 1.0000    scale energy and forces
   NPACO  =    256;   APACO  = 16.0  distance and # of slots for P.C.
   PSTRESS=    0.0 pullay stress

  Mass of Ions in am
   POMASS =  87.62 55.85 16.00
  Ionic Valenz
   ZVAL   =  10.00 14.00  6.00
  Atomic Wigner-Seitz radii
   RWIGS  =  -1.00 -1.00 -1.00
  virtual crystal weights 
   VCA    =   1.00  1.00  1.00
   NELECT =     168.0000    total number of electrons
   NUPDOWN=      -1.0000    fix difference up-down

 DOS related values:
   EMIN   =  10.00;   EMAX   =-10.00  energy-range for DOS
   EFERMI =   0.00
   ISMEAR =     0;   SIGMA  =   0.05  broadening in eV -4-tet -1-fermi 0-gaus

 Electronic relaxation 2 (details)
   IALGO  =     68    algorithm
   LDIAG  =      T    sub-space diagonalisation (order eigenvalues)
   LSUBROT=      F    optimize rotation matrix (better conditioning)
   TURBO    =      0    0=normal 1=particle mesh
   IRESTART =      0    0=no restart 2=restart with 2 vectors
   NREBOOT  =      0    no. of reboots
   NMIN     =      0    reboot dimension
   EREF     =   0.00    reference energy to select bands
   IMIX   =      4    mixing-type and parameters
     AMIX     =   0.40;   BMIX     =  1.00
     AMIX_MAG =   1.60;   BMIX_MAG =  1.00
     AMIN     =   0.10
     WC   =   100.;   INIMIX=   1;  MIXPRE=   1;  MAXMIX= -45

 Intra band minimization:
   WEIMIN = 0.0010     energy-eigenvalue tresh-hold
   EBREAK =  0.23E-06  absolut break condition
   DEPER  =   0.30     relativ break condition  

   TIME   =   0.40     timestep for ELM

  volume/ion in A,a.u.               =      23.07       155.71
  Fermi-wavevector in a.u.,A,eV,Ry     =   1.168939  2.208975 18.591255  1.366419
  Thomas-Fermi vector in A             =   2.305419
 
 Write flags
   LWAVE  =      F    write WAVECAR
   LCHARG =      T    write CHGCAR
   LVTOT  =      T    write LOCPOT, total local potential
   LVHAR  =      F    write LOCPOT, Hartree potential only
   LELF   =      F    write electronic localiz. function (ELF)
   LORBIT =      0    0 simple, 1 ext, 2 COOP (PROOUT)


 Dipole corrections
   LMONO  =      F    monopole corrections only (constant potential shift)
   LDIPOL =      T    correct potential (dipole corrections)
   IDIPOL =      3    1-x, 2-y, 3-z, 4-all directions 
   EPSILON=  1.0000000 bulk dielectric constant

 LDA+U is selected, type is set to LDAUTYPE =  2
   angular momentum for each species LDAUL =     0    2    0
   U (eV)           for each species LDAUU =   0.0  5.3  0.0
   J (eV)           for each species LDAUJ =   0.0  0.0  0.0
 Exchange correlation treatment:
   GGA     =    --    GGA type
   LEXCH   =     7    internal setting for exchange type
   VOSKOWN=      0    Vosko Wilk Nusair interpolation
   LHFCALC =     F    Hartree Fock is set to
   LHFONE  =     F    Hartree Fock one center treatment
   AEXX    =    0.0000 exact exchange contribution

 Linear response parameters
   LEPSILON=     F    determine dielectric tensor
   LRPA    =     F    only Hartree local field effects (RPA)
   LNABLA  =     F    use nabla operator in PAW spheres
   LVEL    =     F    velocity operator in full k-point grid
   LINTERFAST=   F  fast interpolation
   KINTER  =     0    interpolate to denser k-point grid
   CSHIFT  =0.1000    complex shift for real part using Kramers Kronig
   OMEGAMAX=  -1.0    maximum frequency
   DEG_THRESHOLD= 0.2000000E-02 threshold for treating states as degnerate
   RTIME   =    0.100 relaxation time in fs

 Orbital magnetization related:
   ORBITALMAG=     F  switch on orbital magnetization
   LCHIMAG   =     F  perturbation theory with respect to B field
   DQ        =  0.001000  dq finite difference perturbation B field



--------------------------------------------------------------------------------------------------------


 conjugate gradient relaxation of ions
   using selective dynamics as specified on POSCAR
 charge density and potential will be updated during run
 spin polarized calculation
 RMM-DIIS sequential band-by-band and
  variant of blocked Davidson during initial phase
 perform sub-space diagonalisation
    before iterative eigenvector-optimisation
 modified Broyden-mixing scheme, WC =      100.0
 initial mixing is a Kerker type mixing with AMIX =  0.4000 and BMIX =      1.0000
 Hartree-type preconditioning will be used
 using additional bands           26
 real space projection scheme for non local part
 use partial core corrections
 calculate Harris-corrections to forces 
   (improved forces if not selfconsistent)
 use gradient corrections 
 use of overlap-Matrix (Vanderbilt PP)
 Gauss-broadening in eV      SIGMA  =   0.05


--------------------------------------------------------------------------------------------------------


  energy-cutoff  :      300.00
  volume of cell :      461.49
      direct lattice vectors                 reciprocal lattice vectors
     3.886808169  0.000000000  0.000000000     0.257280513  0.000000000  0.000000000
     0.000000000  3.886808169  0.000000000     0.000000000  0.257280513  0.000000000
     0.000000000  0.000000000 30.547232677     0.000000000  0.000000000  0.032736190

  length of vectors
     3.886808169  3.886808169 30.547232677     0.257280513  0.257280513  0.032736190


 
 k-points in units of 2pi/SCALE and weight: Automatic Mesh                          
   0.03216006  0.03216006  0.00000000       0.250
   0.09648019  0.03216006  0.00000000       0.500
   0.09648019  0.09648019  0.00000000       0.250
 
 k-points in reciprocal lattice and weights: Automatic Mesh                          
   0.12500000  0.12500000  0.00000000       0.250
   0.37500000  0.12500000  0.00000000       0.500
   0.37500000  0.37500000  0.00000000       0.250
 
 position of ions in fractional coordinates (direct lattice) 
   0.50000000  0.50000000  0.06361964
   0.50000000  0.50000000  0.19085893
   0.50000000  0.50000000  0.31852341
   0.50000000  0.50000000  0.44076390
   0.00000000  0.00000000  0.00000000
   0.00000000  0.00000000  0.12723929
   0.00000000  0.00000000  0.25556037
   0.00000000  0.00000000  0.38494139
   0.50000000  0.00000000  0.00000000
   0.50000000  0.00000000  0.12723929
   0.50000000  0.00000000  0.25524104
   0.50000000  0.00000000  0.38439581
   0.00000000  0.50000000  0.00000000
   0.00000000  0.50000000  0.12723929
   0.00000000  0.50000000  0.25524104
   0.00000000  0.50000000  0.38439581
   0.00000000  0.00000000  0.06361964
   0.00000000  0.00000000  0.19085893
   0.00000000  0.00000000  0.32020575
   0.00000000  0.00000000  0.44865975
 
 position of ions in cartesian coordinates  (Angst):
   1.94340408  1.94340408  1.94340408
   1.94340408  1.94340408  5.83021225
   1.94340408  1.94340408  9.73000859
   1.94340408  1.94340408 13.46411727
   0.00000000  0.00000000  0.00000000
   0.00000000  0.00000000  3.88680817
   0.00000000  0.00000000  7.80666220
   0.00000000  0.00000000 11.75889424
   1.94340408  0.00000000  0.00000000
   1.94340408  0.00000000  3.88680817
   1.94340408  0.00000000  7.79690735
   1.94340408  0.00000000 11.74222822
   0.00000000  1.94340408  0.00000000
   0.00000000  1.94340408  3.88680817
   0.00000000  1.94340408  7.79690735
   0.00000000  1.94340408 11.74222822
   0.00000000  0.00000000  1.94340408
   0.00000000  0.00000000  5.83021225
   0.00000000  0.00000000  9.78139952
   0.00000000  0.00000000 13.70531376
 


--------------------------------------------------------------------------------------------------------


 k-point  1 :   0.1250 0.1250 0.0000  plane waves:    5476
 k-point  2 :   0.3750 0.1250 0.0000  plane waves:    5455
 k-point  3 :   0.3750 0.3750 0.0000  plane waves:    5400

 maximum and minimum number of plane-waves per node :      1385     1350

 maximum number of plane-waves:      5476
 maximum index in each direction: 
   IXMAX=    5   IYMAX=    5   IZMAX=   43
   IXMIN=   -5   IYMIN=   -5   IZMIN=  -43

 WARNING: aliasing errors must be expected set NGX to  22 to avoid them
 WARNING: aliasing errors must be expected set NGY to  22 to avoid them
 WARNING: aliasing errors must be expected set NGZ to 174 to avoid them
 aliasing errors are usually negligible using standard VASP settings
 and one can safely disregard these warnings

 real space projection operators:
  total allocation   :       2240.78 KBytes
  max/ min on nodes  :        582.12        532.62


 parallel 3D FFT for wavefunctions:
    minimum data exchange during FFTs selected (reduces bandwidth)
 parallel 3D FFT for charge:
    minimum data exchange during FFTs selected (reduces bandwidth)


 total amount of memory used by VASP on root node    44412. kBytes
========================================================================

   base      :      30000. kBytes
   nonlr-proj:       1253. kBytes
   fftplans  :       1479. kBytes
   grid      :       3891. kBytes
   one-center:        155. kBytes
   wavefun   :       7634. kBytes
 
     INWAV:  cpu time    0.0000: real time    0.0000
 Broyden mixing: mesh for mixing (old mesh)
   NGX = 11   NGY = 11   NGZ = 87
  (NGX  = 32   NGY  = 32   NGZ  =280)
  gives a total of  10527 points

 initial charge density was supplied:
 charge density of overlapping atoms calculated
 number of electron     168.0000000 magnetization      20.0000000
 keeping initial charge density in first step


--------------------------------------------------------------------------------------------------------


 Maximum index for non-local projection operator          389
 Maximum index for augmentation-charges          566 (set IRDMAX)


--------------------------------------------------------------------------------------------------------


 First call to EWALD:  gamma=   0.229
 Maximum number of real-space cells 5x 5x 1
 Maximum number of reciprocal cells 2x 2x 9

 FEWALD executed in parallel
    FEWALD:  cpu time    0.0030: real time    0.0031


----------------------------------------- Iteration    1(   1)  ---------------------------------------


    POTLOK:  cpu time    0.4449: real time    0.4479
    SETDIJ:  cpu time    0.0430: real time    0.0426
atom =   1  type =  1  l = 0
 
 onsite density matrix
 
spin component  1
 
  1.1831
 
spin component  2
 
  0.9680
 
 occupancies and eigenvectors
 
  o =  0.9680  v =  0.0000  1.0000      0.0000  0.0000
  o =  1.1831  v =  1.0000  0.0000      0.0000  0.0000
atom =   2  type =  1  l = 0
 
 onsite density matrix
 
spin component  1
 
  1.1831
 
spin component  2
 
  0.9680
 
 occupancies and eigenvectors
 
  o =  0.9680  v =  0.0000  1.0000      0.0000  0.0000
  o =  1.1831  v =  1.0000  0.0000      0.0000  0.0000
atom =   3  type =  1  l = 0
 
 onsite density matrix
 
spin component  1
 
  1.1831
 
spin component  2
 
  0.9680
 
 occupancies and eigenvectors
 
  o =  0.9680  v =  0.0000  1.0000      0.0000  0.0000
  o =  1.1831  v =  1.0000  0.0000      0.0000  0.0000
atom =   4  type =  1  l = 0
 
 onsite density matrix
 
spin component  1
 
  1.1831
 
spin component  2
 
  0.9680
 
 occupancies and eigenvectors
 
  o =  0.9680  v =  0.0000  1.0000      0.0000  0.0000
  o =  1.1831  v =  1.0000  0.0000      0.0000  0.0000
atom =   5  type =  2  l = 2
 
 onsite density matrix
 
spin component  1
 
  0.6713  0.0000  0.0000  0.0000  0.0000
  0.0000  0.6713  0.0000  0.0000  0.0000
  0.0000  0.0000  0.6713  0.0000  0.0000
  0.0000  0.0000  0.0000  0.6713  0.0000
  0.0000  0.0000  0.0000  0.0000  0.6713
 
spin component  2
 
  0.5818  0.0000  0.0000  0.0000  0.0000
  0.0000  0.5818  0.0000  0.0000  0.0000
  0.0000  0.0000  0.5818  0.0000  0.0000
  0.0000  0.0000  0.0000  0.5818  0.0000
  0.0000  0.0000  0.0000  0.0000  0.5818
 
 occupancies and eigenvectors
 
  o =  0.5818  v =  0.0000  0.0000  0.0000  0.0000  0.0000  1.0000  0.0000  0.0000  0.0000  0.0000      0.0000  0.0000  0.0000  0.0000  0.0000  0.0000  0.0000  0.0000  0.0000  0.0000
  o =  0.5818  v =  0.0000  0.0000  0.0000  0.0000  0.0000  0.0000  1.0000  0.0000  0.0000  0.0000      0.0000  0.0000  0.0000  0.0000  0.0000  0.0000  0.0000  0.0000  0.0000  0.0000
  o =  0.5818  v =  0.0000  0.0000  0.0000  0.0000  0.0000  0.0000  0.0000  1.0000  0.0000  0.0000      0.0000  0.0000  0.0000  0.0000  0.0000  0.0000  0.0000  0.0000  0.0000  0.0000
  o =  0.5818  v =  0.0000  0.0000  0.0000  0.0000  0.0000  0.0000  0.0000  0.0000  1.0000  0.0000      0.0000  0.0000  0.0000  0.0000  0.0000  0.0000  0.0000  0.0000  0.0000  0.0000
  o =  0.5818  v =  0.0000  0.0000  0.0000  0.0000  0.0000  0.0000  0.0000  0.0000  0.0000  1.0000      0.0000  0.0000  0.0000  0.0000  0.0000  0.0000  0.0000  0.0000  0.0000  0.0000
  o =  0.6713  v =  1.0000  0.0000  0.0000  0.0000  0.0000  0.0000  0.0000  0.0000  0.0000  0.0000      0.0000  0.0000  0.0000  0.0000  0.0000  0.0000  0.0000  0.0000  0.0000  0.0000
  o =  0.6713  v =  0.0000  1.0000  0.0000  0.0000  0.0000  0.0000  0.0000  0.0000  0.0000  0.0000      0.0000  0.0000  0.0000  0.0000  0.0000  0.0000  0.0000  0.0000  0.0000  0.0000
  o =  0.6713  v =  0.0000  0.0000  1.0000  0.0000  0.0000  0.0000  0.0000  0.0000  0.0000  0.0000      0.0000  0.0000  0.0000  0.0000  0.0000  0.0000  0.0000  0.0000  0.0000  0.0000
  o =  0.6713  v =  0.0000  0.0000  0.0000  1.0000  0.0000  0.0000  0.0000  0.0000  0.0000  0.0000      0.0000  0.0000  0.0000  0.0000  0.0000  0.0000  0.0000  0.0000  0.0000  0.0000
  o =  0.6713  v =  0.0000  0.0000  0.0000  0.0000  1.0000  0.0000  0.0000  0.0000  0.0000  0.0000      0.0000  0.0000  0.0000  0.0000  0.0000  0.0000  0.0000  0.0000  0.0000  0.0000
atom =   6  type =  2  l = 2
 
 onsite density matrix
 
spin component  1
 
  0.6713  0.0000  0.0000  0.0000  0.0000
  0.0000  0.6713  0.0000  0.0000  0.0000
  0.0000  0.0000  0.6713  0.0000  0.0000
  0.0000  0.0000  0.0000  0.6713  0.0000
  0.0000  0.0000  0.0000  0.0000  0.6713
 
spin component  2
 
  0.5818  0.0000  0.0000  0.0000  0.0000
  0.0000  0.5818  0.0000  0.0000  0.0000
  0.0000  0.0000  0.5818  0.0000  0.0000
  0.0000  0.0000  0.0000  0.5818  0.0000
  0.0000  0.0000  0.0000  0.0000  0.5818
 
 occupancies and eigenvectors
 
  o =  0.5818  v =  0.0000  0.0000  0.0000  0.0000  0.0000  1.0000  0.0000  0.0000  0.0000  0.0000      0.0000  0.0000  0.0000  0.0000  0.0000  0.0000  0.0000  0.0000  0.0000  0.0000
  o =  0.5818  v =  0.0000  0.0000  0.0000  0.0000  0.0000  0.0000  1.0000  0.0000  0.0000  0.0000      0.0000  0.0000  0.0000  0.0000  0.0000  0.0000  0.0000  0.0000  0.0000  0.0000
  o =  0.5818  v =  0.0000  0.0000  0.0000  0.0000  0.0000  0.0000  0.0000  1.0000  0.0000  0.0000      0.0000  0.0000  0.0000  0.0000  0.0000  0.0000  0.0000  0.0000  0.0000  0.0000
  o =  0.5818  v =  0.0000  0.0000  0.0000  0.0000  0.0000  0.0000  0.0000  0.0000  1.0000  0.0000      0.0000  0.0000  0.0000  0.0000  0.0000  0.0000  0.0000  0.0000  0.0000  0.0000
  o =  0.5818  v =  0.0000  0.0000  0.0000  0.0000  0.0000  0.0000  0.0000  0.0000  0.0000  1.0000      0.0000  0.0000  0.0000  0.0000  0.0000  0.0000  0.0000  0.0000  0.0000  0.0000
  o =  0.6713  v =  1.0000  0.0000  0.0000  0.0000  0.0000  0.0000  0.0000  0.0000  0.0000  0.0000      0.0000  0.0000  0.0000  0.0000  0.0000  0.0000  0.0000  0.0000  0.0000  0.0000
  o =  0.6713  v =  0.0000  1.0000  0.0000  0.0000  0.0000  0.0000  0.0000  0.0000  0.0000  0.0000      0.0000  0.0000  0.0000  0.0000  0.0000  0.0000  0.0000  0.0000  0.0000  0.0000
  o =  0.6713  v =  0.0000  0.0000  1.0000  0.0000  0.0000  0.0000  0.0000  0.0000  0.0000  0.0000      0.0000  0.0000  0.0000  0.0000  0.0000  0.0000  0.0000  0.0000  0.0000  0.0000
  o =  0.6713  v =  0.0000  0.0000  0.0000  1.0000  0.0000  0.0000  0.0000  0.0000  0.0000  0.0000      0.0000  0.0000  0.0000  0.0000  0.0000  0.0000  0.0000  0.0000  0.0000  0.0000
  o =  0.6713  v =  0.0000  0.0000  0.0000  0.0000  1.0000  0.0000  0.0000  0.0000  0.0000  0.0000      0.0000  0.0000  0.0000  0.0000  0.0000  0.0000  0.0000  0.0000  0.0000  0.0000
atom =   7  type =  2  l = 2
 
 onsite density matrix
 
spin component  1
 
  0.6713  0.0000  0.0000  0.0000  0.0000
  0.0000  0.6713  0.0000  0.0000  0.0000
  0.0000  0.0000  0.6713  0.0000  0.0000
  0.0000  0.0000  0.0000  0.6713  0.0000
  0.0000  0.0000  0.0000  0.0000  0.6713
 
spin component  2
 
  0.5818  0.0000  0.0000  0.0000  0.0000
  0.0000  0.5818  0.0000  0.0000  0.0000
  0.0000  0.0000  0.5818  0.0000  0.0000
  0.0000  0.0000  0.0000  0.5818  0.0000
  0.0000  0.0000  0.0000  0.0000  0.5818
 
 occupancies and eigenvectors
 
  o =  0.5818  v =  0.0000  0.0000  0.0000  0.0000  0.0000  1.0000  0.0000  0.0000  0.0000  0.0000      0.0000  0.0000  0.0000  0.0000  0.0000  0.0000  0.0000  0.0000  0.0000  0.0000
  o =  0.5818  v =  0.0000  0.0000  0.0000  0.0000  0.0000  0.0000  1.0000  0.0000  0.0000  0.0000      0.0000  0.0000  0.0000  0.0000  0.0000  0.0000  0.0000  0.0000  0.0000  0.0000
  o =  0.5818  v =  0.0000  0.0000  0.0000  0.0000  0.0000  0.0000  0.0000  1.0000  0.0000  0.0000      0.0000  0.0000  0.0000  0.0000  0.0000  0.0000  0.0000  0.0000  0.0000  0.0000
  o =  0.5818  v =  0.0000  0.0000  0.0000  0.0000  0.0000  0.0000  0.0000  0.0000  1.0000  0.0000      0.0000  0.0000  0.0000  0.0000  0.0000  0.0000  0.0000  0.0000  0.0000  0.0000
  o =  0.5818  v =  0.0000  0.0000  0.0000  0.0000  0.0000  0.0000  0.0000  0.0000  0.0000  1.0000      0.0000  0.0000  0.0000  0.0000  0.0000  0.0000  0.0000  0.0000  0.0000  0.0000
  o =  0.6713  v =  1.0000  0.0000  0.0000  0.0000  0.0000  0.0000  0.0000  0.0000  0.0000  0.0000      0.0000  0.0000  0.0000  0.0000  0.0000  0.0000  0.0000  0.0000  0.0000  0.0000
  o =  0.6713  v =  0.0000  1.0000  0.0000  0.0000  0.0000  0.0000  0.0000  0.0000  0.0000  0.0000      0.0000  0.0000  0.0000  0.0000  0.0000  0.0000  0.0000  0.0000  0.0000  0.0000
  o =  0.6713  v =  0.0000  0.0000  1.0000  0.0000  0.0000  0.0000  0.0000  0.0000  0.0000  0.0000      0.0000  0.0000  0.0000  0.0000  0.0000  0.0000  0.0000  0.0000  0.0000  0.0000
  o =  0.6713  v =  0.0000  0.0000  0.0000  1.0000  0.0000  0.0000  0.0000  0.0000  0.0000  0.0000      0.0000  0.0000  0.0000  0.0000  0.0000  0.0000  0.0000  0.0000  0.0000  0.0000
  o =  0.6713  v =  0.0000  0.0000  0.0000  0.0000  1.0000  0.0000  0.0000  0.0000  0.0000  0.0000      0.0000  0.0000  0.0000  0.0000  0.0000  0.0000  0.0000  0.0000  0.0000  0.0000
atom =   8  type =  2  l = 2
 
 onsite density matrix
 
spin component  1
 
  0.6713  0.0000  0.0000  0.0000  0.0000
  0.0000  0.6713  0.0000  0.0000  0.0000
  0.0000  0.0000  0.6713  0.0000  0.0000
  0.0000  0.0000  0.0000  0.6713  0.0000
  0.0000  0.0000  0.0000  0.0000  0.6713
 
spin component  2
 
  0.5818  0.0000  0.0000  0.0000  0.0000
  0.0000  0.5818  0.0000  0.0000  0.0000
  0.0000  0.0000  0.5818  0.0000  0.0000
  0.0000  0.0000  0.0000  0.5818  0.0000
  0.0000  0.0000  0.0000  0.0000  0.5818
 
 occupancies and eigenvectors
 
  o =  0.5818  v =  0.0000  0.0000  0.0000  0.0000  0.0000  1.0000  0.0000  0.0000  0.0000  0.0000      0.0000  0.0000  0.0000  0.0000  0.0000  0.0000  0.0000  0.0000  0.0000  0.0000
  o =  0.5818  v =  0.0000  0.0000  0.0000  0.0000  0.0000  0.0000  1.0000  0.0000  0.0000  0.0000      0.0000  0.0000  0.0000  0.0000  0.0000  0.0000  0.0000  0.0000  0.0000  0.0000
  o =  0.5818  v =  0.0000  0.0000  0.0000  0.0000  0.0000  0.0000  0.0000  1.0000  0.0000  0.0000      0.0000  0.0000  0.0000  0.0000  0.0000  0.0000  0.0000  0.0000  0.0000  0.0000
  o =  0.5818  v =  0.0000  0.0000  0.0000  0.0000  0.0000  0.0000  0.0000  0.0000  1.0000  0.0000      0.0000  0.0000  0.0000  0.0000  0.0000  0.0000  0.0000  0.0000  0.0000  0.0000
  o =  0.5818  v =  0.0000  0.0000  0.0000  0.0000  0.0000  0.0000  0.0000  0.0000  0.0000  1.0000      0.0000  0.0000  0.0000  0.0000  0.0000  0.0000  0.0000  0.0000  0.0000  0.0000
  o =  0.6713  v =  1.0000  0.0000  0.0000  0.0000  0.0000  0.0000  0.0000  0.0000  0.0000  0.0000      0.0000  0.0000  0.0000  0.0000  0.0000  0.0000  0.0000  0.0000  0.0000  0.0000
  o =  0.6713  v =  0.0000  1.0000  0.0000  0.0000  0.0000  0.0000  0.0000  0.0000  0.0000  0.0000      0.0000  0.0000  0.0000  0.0000  0.0000  0.0000  0.0000  0.0000  0.0000  0.0000
  o =  0.6713  v =  0.0000  0.0000  1.0000  0.0000  0.0000  0.0000  0.0000  0.0000  0.0000  0.0000      0.0000  0.0000  0.0000  0.0000  0.0000  0.0000  0.0000  0.0000  0.0000  0.0000
  o =  0.6713  v =  0.0000  0.0000  0.0000  1.0000  0.0000  0.0000  0.0000  0.0000  0.0000  0.0000      0.0000  0.0000  0.0000  0.0000  0.0000  0.0000  0.0000  0.0000  0.0000  0.0000
  o =  0.6713  v =  0.0000  0.0000  0.0000  0.0000  1.0000  0.0000  0.0000  0.0000  0.0000  0.0000      0.0000  0.0000  0.0000  0.0000  0.0000  0.0000  0.0000  0.0000  0.0000  0.0000
atom =   9  type =  3  l = 0
 
 onsite density matrix
 
spin component  1
 
  1.0874
 
spin component  2
 
  0.7767
 
 occupancies and eigenvectors
 
  o =  0.7767  v =  0.0000  1.0000      0.0000  0.0000
  o =  1.0874  v =  1.0000  0.0000      0.0000  0.0000
atom =  10  type =  3  l = 0
 
 onsite density matrix
 
spin component  1
 
  1.0874
 
spin component  2
 
  0.7767
 
 occupancies and eigenvectors
 
  o =  0.7767  v =  0.0000  1.0000      0.0000  0.0000
  o =  1.0874  v =  1.0000  0.0000      0.0000  0.0000
atom =  11  type =  3  l = 0
 
 onsite density matrix
 
spin component  1
 
  1.0874
 
spin component  2
 
  0.7767
 
 occupancies and eigenvectors
 
  o =  0.7767  v =  0.0000  1.0000      0.0000  0.0000
  o =  1.0874  v =  1.0000  0.0000      0.0000  0.0000
atom =  12  type =  3  l = 0
 
 onsite density matrix
 
spin component  1
 
  1.0874
 
spin component  2
 
  0.7767
 
 occupancies and eigenvectors
 
  o =  0.7767  v =  0.0000  1.0000      0.0000  0.0000
  o =  1.0874  v =  1.0000  0.0000      0.0000  0.0000
atom =  13  type =  3  l = 0
 
 onsite density matrix
 
spin component  1
 
  1.0874
 
spin component  2
 
  0.7767
 
 occupancies and eigenvectors
 
  o =  0.7767  v =  0.0000  1.0000      0.0000  0.0000
  o =  1.0874  v =  1.0000  0.0000      0.0000  0.0000
atom =  14  type =  3  l = 0
 
 onsite density matrix
 
spin component  1
 
  1.0874
 
spin component  2
 
  0.7767
 
 occupancies and eigenvectors
 
  o =  0.7767  v =  0.0000  1.0000      0.0000  0.0000
  o =  1.0874  v =  1.0000  0.0000      0.0000  0.0000
atom =  15  type =  3  l = 0
 
 onsite density matrix
 
spin component  1
 
  1.0874
 
spin component  2
 
  0.7767
 
 occupancies and eigenvectors
 
  o =  0.7767  v =  0.0000  1.0000      0.0000  0.0000
  o =  1.0874  v =  1.0000  0.0000      0.0000  0.0000
atom =  16  type =  3  l = 0
 
 onsite density matrix
 
spin component  1
 
  1.0874
 
spin component  2
 
  0.7767
 
 occupancies and eigenvectors
 
  o =  0.7767  v =  0.0000  1.0000      0.0000  0.0000
  o =  1.0874  v =  1.0000  0.0000      0.0000  0.0000
atom =  17  type =  3  l = 0
 
 onsite density matrix
 
spin component  1
 
  1.0874
 
spin component  2
 
  0.7767
 
 occupancies and eigenvectors
 
  o =  0.7767  v =  0.0000  1.0000      0.0000  0.0000
  o =  1.0874  v =  1.0000  0.0000      0.0000  0.0000
atom =  18  type =  3  l = 0
 
 onsite density matrix
 
spin component  1
 
  1.0874
 
spin component  2
 
  0.7767
 
 occupancies and eigenvectors
 
  o =  0.7767  v =  0.0000  1.0000      0.0000  0.0000
  o =  1.0874  v =  1.0000  0.0000      0.0000  0.0000
atom =  19  type =  3  l = 0
 
 onsite density matrix
 
spin component  1
 
  1.0874
 
spin component  2
 
  0.7767
 
 occupancies and eigenvectors
 
  o =  0.7767  v =  0.0000  1.0000      0.0000  0.0000
  o =  1.0874  v =  1.0000  0.0000      0.0000  0.0000
atom =  20  type =  3  l = 0
 
 onsite density matrix
 
spin component  1
 
  1.0874
 
spin component  2
 
  0.7767
 
 occupancies and eigenvectors
 
  o =  0.7767  v =  0.0000  1.0000      0.0000  0.0000
  o =  1.0874  v =  1.0000  0.0000      0.0000  0.0000
     EDDAV:  cpu time    4.8823: real time    4.8913
       DOS:  cpu time    0.0020: real time    0.0018
    --------------------------------------------
      LOOP:  cpu time    5.3792: real time    5.3909

 eigenvalue-minimisations  :  1496
 total energy-change (2. order) : 0.1448694E+04  (-0.7076665E+04)
 number of electron     168.0000000 magnetization      20.0000000
 augmentation part      168.0000000 magnetization      20.0000000

 DIPCOR: dipole corrections for dipol
 direction  3 min pos   198,
 dipolmoment           0.000000      0.000000     -0.000116 electrons x Angstroem
 Tr[quadrupol]      -488.166376

 energy correction for charged system         0.000000 eV
 dipol+quadrupol energy correction            0.000000 eV
 added-field ion interaction          0.002822 eV  (added to PSCEN)


 Free energy of the ion-electron system (eV)
  ---------------------------------------------------
  alpha Z        PSCENC =       595.92595888
  Ewald energy   TEWEN  =     92138.10995991
  -Hartree energ DENC   =   -108742.43444891
  -exchange      EXHF   =         0.00000000
  -V(xc)+E(xc)   XCENC  =       759.19912211
  PAW double counting   =     12967.27660945   -13271.26785113
  entropy T*S    EENTRO =        -0.01703980
  eigenvalues    EBANDS =     -1405.89178246
  atomic energy  EATOM  =     18407.79351682
  Solvation  Ediel_sol  =         0.00000000
  ---------------------------------------------------
  free energy    TOTEN  =      1448.69404484 eV

  energy without entropy =     1448.71108465  energy(sigma->0) =     1448.70256475


--------------------------------------------------------------------------------------------------------




----------------------------------------- Iteration    1(   2)  ---------------------------------------


     EDDAV:  cpu time    4.5813: real time    4.5892
       DOS:  cpu time    0.0020: real time    0.0019
    --------------------------------------------
      LOOP:  cpu time    4.5843: real time    4.5932

 eigenvalue-minimisations  :  1382
 total energy-change (2. order) :-0.1470999E+04  (-0.1399079E+04)
 number of electron     168.0000000 magnetization      20.0000000
 augmentation part      168.0000000 magnetization      20.0000000

 DIPCOR: dipole corrections for dipol
 direction  3 min pos   198,
 dipolmoment           0.000000      0.000000     -0.000116 electrons x Angstroem
 Tr[quadrupol]      -488.166376

 energy correction for charged system         0.000000 eV
 dipol+quadrupol energy correction            0.000000 eV
 added-field ion interaction          0.002822 eV  (added to PSCEN)


 Free energy of the ion-electron system (eV)
  ---------------------------------------------------
  alpha Z        PSCENC =       595.92595888
  Ewald energy   TEWEN  =     92138.10995991
  -Hartree energ DENC   =   -108742.43444891
  -exchange      EXHF   =         0.00000000
  -V(xc)+E(xc)   XCENC  =       759.19912211
  PAW double counting   =     12967.27660945   -13271.26785113
  entropy T*S    EENTRO =        -0.01540860
  eigenvalues    EBANDS =     -2876.89290964
  atomic energy  EATOM  =     18407.79351682
  Solvation  Ediel_sol  =         0.00000000
  ---------------------------------------------------
  free energy    TOTEN  =       -22.30545113 eV

  energy without entropy =      -22.29004253  energy(sigma->0) =      -22.29774683


--------------------------------------------------------------------------------------------------------




----------------------------------------- Iteration    1(   3)  ---------------------------------------


     EDDAV:  cpu time    5.0522: real time    5.0625
       DOS:  cpu time    0.0020: real time    0.0018
    --------------------------------------------
      LOOP:  cpu time    5.0552: real time    5.0663

 eigenvalue-minimisations  :  1560
 total energy-change (2. order) :-0.1223139E+03  (-0.1201047E+03)
 number of electron     168.0000000 magnetization      20.0000000
 augmentation part      168.0000000 magnetization      20.0000000

 DIPCOR: dipole corrections for dipol
 direction  3 min pos   198,
 dipolmoment           0.000000      0.000000     -0.000116 electrons x Angstroem
 Tr[quadrupol]      -488.166376

 energy correction for charged system         0.000000 eV
 dipol+quadrupol energy correction            0.000000 eV
 added-field ion interaction          0.002822 eV  (added to PSCEN)


 Free energy of the ion-electron system (eV)
  ---------------------------------------------------
  alpha Z        PSCENC =       595.92595888
  Ewald energy   TEWEN  =     92138.10995991
  -Hartree energ DENC   =   -108742.43444891
  -exchange      EXHF   =         0.00000000
  -V(xc)+E(xc)   XCENC  =       759.19912211
  PAW double counting   =     12967.27660945   -13271.26785113
  entropy T*S    EENTRO =        -0.00615662
  eigenvalues    EBANDS =     -2999.21606122
  atomic energy  EATOM  =     18407.79351682
  Solvation  Ediel_sol  =         0.00000000
  ---------------------------------------------------
  free energy    TOTEN  =      -144.61935074 eV

  energy without entropy =     -144.61319412  energy(sigma->0) =     -144.61627243


--------------------------------------------------------------------------------------------------------




----------------------------------------- Iteration    1(   4)  ---------------------------------------


     EDDAV:  cpu time    6.2421: real time    6.2511
       DOS:  cpu time    0.0020: real time    0.0018
    --------------------------------------------
      LOOP:  cpu time    6.2461: real time    6.2549

 eigenvalue-minimisations  :  2016
 total energy-change (2. order) :-0.5526380E+01  (-0.5498105E+01)
 number of electron     168.0000000 magnetization      20.0000000
 augmentation part      168.0000000 magnetization      20.0000000

 DIPCOR: dipole corrections for dipol
 direction  3 min pos   198,
 dipolmoment           0.000000      0.000000     -0.000116 electrons x Angstroem
 Tr[quadrupol]      -488.166376

 energy correction for charged system         0.000000 eV
 dipol+quadrupol energy correction            0.000000 eV
 added-field ion interaction          0.002822 eV  (added to PSCEN)


 Free energy of the ion-electron system (eV)
  ---------------------------------------------------
  alpha Z        PSCENC =       595.92595888
  Ewald energy   TEWEN  =     92138.10995991
  -Hartree energ DENC   =   -108742.43444891
  -exchange      EXHF   =         0.00000000
  -V(xc)+E(xc)   XCENC  =       759.19912211
  PAW double counting   =     12967.27660945   -13271.26785113
  entropy T*S    EENTRO =        -0.00767761
  eigenvalues    EBANDS =     -3004.74091991
  atomic energy  EATOM  =     18407.79351682
  Solvation  Ediel_sol  =         0.00000000
  ---------------------------------------------------
  free energy    TOTEN  =      -150.14573041 eV

  energy without entropy =     -150.13805280  energy(sigma->0) =     -150.14189160


--------------------------------------------------------------------------------------------------------




----------------------------------------- Iteration    1(   5)  ---------------------------------------


     EDDAV:  cpu time    6.9599: real time    6.9712
       DOS:  cpu time    0.0020: real time    0.0017
    CHARGE:  cpu time    0.1600: real time    0.1593
    MIXING:  cpu time    0.0030: real time    0.0039
    --------------------------------------------
      LOOP:  cpu time    7.1259: real time    7.1383

 eigenvalue-minimisations  :  2288
 total energy-change (2. order) :-0.4769228E+00  (-0.4766064E+00)
 number of electron     168.0001388 magnetization      19.3824806
 augmentation part       51.4644237 magnetization      16.0151047

 DIPCOR: dipole corrections for dipol
 direction  3 min pos   198,
 dipolmoment           0.000000      0.000000     -0.000116 electrons x Angstroem
 Tr[quadrupol]      -488.166376

 energy correction for charged system         0.000000 eV
 dipol+quadrupol energy correction            0.000000 eV
 added-field ion interaction          0.002822 eV  (added to PSCEN)


 Broyden mixing:
  rms(total) = 0.54521E+01    rms(broyden)= 0.54363E+01
  rms(prec ) = 0.56459E+01
  weight for this iteration     100.00

 Free energy of the ion-electron system (eV)
  ---------------------------------------------------
  alpha Z        PSCENC =       595.92595888
  Ewald energy   TEWEN  =     92138.10995991
  -Hartree energ DENC   =   -108742.43444891
  -exchange      EXHF   =         0.00000000
  -V(xc)+E(xc)   XCENC  =       759.19912211
  PAW double counting   =     12967.27660945   -13271.26785113
  entropy T*S    EENTRO =        -0.00770391
  eigenvalues    EBANDS =     -3005.21781642
  atomic energy  EATOM  =     18407.79351682
  Solvation  Ediel_sol  =         0.00000000
  ---------------------------------------------------
  free energy    TOTEN  =      -150.62265323 eV

  energy without entropy =     -150.61494932  energy(sigma->0) =     -150.61880127


--------------------------------------------------------------------------------------------------------




----------------------------------------- Iteration    1(   6)  ---------------------------------------


    POTLOK:  cpu time    0.4539: real time    0.4563
    SETDIJ:  cpu time    0.0430: real time    0.0437
atom =   1  type =  1  l = 0
 
 onsite density matrix
 
spin component  1
 
  0.9772
 
spin component  2
 
  1.1086
 
 occupancies and eigenvectors
 
  o =  0.9772  v =  1.0000  0.0000      0.0000  0.0000
  o =  1.1086  v =  0.0000  1.0000      0.0000  0.0000
atom =   2  type =  1  l = 0
 
 onsite density matrix
 
spin component  1
 
  0.9771
 
spin component  2
 
  1.1083
 
 occupancies and eigenvectors
 
  o =  0.9771  v =  1.0000  0.0000      0.0000  0.0000
  o =  1.1083  v =  0.0000  1.0000      0.0000  0.0000
atom =   3  type =  1  l = 0
 
 onsite density matrix
 
spin component  1
 
  0.9769
 
spin component  2
 
  1.1082
 
 occupancies and eigenvectors
 
  o =  0.9769  v =  1.0000  0.0000      0.0000  0.0000
  o =  1.1082  v =  0.0000  1.0000      0.0000  0.0000
atom =   4  type =  1  l = 0
 
 onsite density matrix
 
spin component  1
 
  0.9768
 
spin component  2
 
  1.1080
 
 occupancies and eigenvectors
 
  o =  0.9768  v =  1.0000  0.0000      0.0000  0.0000
  o =  1.1080  v =  0.0000  1.0000      0.0000  0.0000
atom =   5  type =  2  l = 2
 
 onsite density matrix
 
spin component  1
 
  1.0202  0.0000  0.0000  0.0000  0.0000
  0.0000  1.2029  0.0000  0.0000  0.0000
  0.0000  0.0000  0.4632  0.0000  0.0000
  0.0000  0.0000  0.0000  1.2029  0.0000
  0.0000  0.0000  0.0000  0.0000  0.4109
 
spin component  2
 
  0.0344  0.0000  0.0000  0.0000  0.0000
  0.0000 -0.0708  0.0000  0.0000  0.0000
  0.0000  0.0000  0.3992  0.0000  0.0000
  0.0000  0.0000  0.0000 -0.0708  0.0000
  0.0000  0.0000  0.0000  0.0000  0.4682
 
 occupancies and eigenvectors
 
  o = -0.0708  v =  0.0000  0.0000  0.0000  0.0000  0.0000  0.0000 -1.0000  0.0000  0.0064  0.0000      0.0000  0.0000  0.0000  0.0000  0.0000  0.0000  0.0000  0.0000  0.0000  0.0000
  o = -0.0708  v =  0.0000  0.0000  0.0000  0.0000  0.0000  0.0000  0.0064  0.0000  1.0000  0.0000      0.0000  0.0000  0.0000  0.0000  0.0000  0.0000  0.0000  0.0000  0.0000  0.0000
  o =  0.0344  v =  0.0000  0.0000  0.0000  0.0000  0.0000  1.0000  0.0000  0.0000  0.0000  0.0000      0.0000  0.0000  0.0000  0.0000  0.0000  0.0000  0.0000  0.0000  0.0000  0.0000
  o =  0.3992  v =  0.0000  0.0000  0.0000  0.0000  0.0000  0.0000  0.0000 -1.0000  0.0000  0.0000      0.0000  0.0000  0.0000  0.0000  0.0000  0.0000  0.0000  0.0000  0.0000  0.0000
  o =  0.4109  v =  0.0000  0.0000  0.0000  0.0000 -1.0000  0.0000  0.0000  0.0000  0.0000  0.0000      0.0000  0.0000  0.0000  0.0000  0.0000  0.0000  0.0000  0.0000  0.0000  0.0000
  o =  0.4632  v =  0.0000  0.0000 -1.0000  0.0000  0.0000  0.0000  0.0000  0.0000  0.0000  0.0000      0.0000  0.0000  0.0000  0.0000  0.0000  0.0000  0.0000  0.0000  0.0000  0.0000
  o =  0.4682  v =  0.0000  0.0000  0.0000  0.0000  0.0000  0.0000  0.0000  0.0000  0.0000 -1.0000      0.0000  0.0000  0.0000  0.0000  0.0000  0.0000  0.0000  0.0000  0.0000  0.0000
  o =  1.0202  v =  1.0000  0.0000  0.0000  0.0000  0.0000  0.0000  0.0000  0.0000  0.0000  0.0000      0.0000  0.0000  0.0000  0.0000  0.0000  0.0000  0.0000  0.0000  0.0000  0.0000
  o =  1.2029  v =  0.0000 -0.9995  0.0000  0.0303  0.0000  0.0000  0.0000  0.0000  0.0000  0.0000      0.0000  0.0000  0.0000  0.0000  0.0000  0.0000  0.0000  0.0000  0.0000  0.0000
  o =  1.2029  v =  0.0000 -0.0303  0.0000 -0.9995  0.0000  0.0000  0.0000  0.0000  0.0000  0.0000      0.0000  0.0000  0.0000  0.0000  0.0000  0.0000  0.0000  0.0000  0.0000  0.0000
atom =   6  type =  2  l = 2
 
 onsite density matrix
 
spin component  1
 
  1.1043  0.0000  0.0000  0.0000  0.0000
  0.0000  1.0520  0.0000  0.0000  0.0000
  0.0000  0.0000  0.5996  0.0000  0.0000
  0.0000  0.0000  0.0000  1.0520  0.0000
  0.0000  0.0000  0.0000  0.0000  0.6648
 
spin component  2
 
  0.1148  0.0000  0.0000  0.0000  0.0000
  0.0000  0.2015  0.0000  0.0000  0.0000
  0.0000  0.0000  0.3513  0.0000  0.0000
  0.0000  0.0000  0.0000  0.2015  0.0000
  0.0000  0.0000  0.0000  0.0000  0.3118
 
 occupancies and eigenvectors
 
  o =  0.1148  v =  0.0000  0.0000  0.0000  0.0000  0.0000  1.0000  0.0000  0.0000  0.0000  0.0000      0.0000  0.0000  0.0000  0.0000  0.0000  0.0000  0.0000  0.0000  0.0000  0.0000
  o =  0.2015  v =  0.0000  0.0000  0.0000  0.0000  0.0000  0.0000 -0.9947  0.0000  0.1026  0.0000      0.0000  0.0000  0.0000  0.0000  0.0000  0.0000  0.0000  0.0000  0.0000  0.0000
  o =  0.2015  v =  0.0000  0.0000  0.0000  0.0000  0.0000  0.0000 -0.1026  0.0000 -0.9947  0.0000      0.0000  0.0000  0.0000  0.0000  0.0000  0.0000  0.0000  0.0000  0.0000  0.0000
  o =  0.3118  v =  0.0000  0.0000  0.0000  0.0000  0.0000  0.0000  0.0000  0.0000  0.0000  1.0000      0.0000  0.0000  0.0000  0.0000  0.0000  0.0000  0.0000  0.0000  0.0000  0.0000
  o =  0.3513  v =  0.0000  0.0000  0.0000  0.0000  0.0000  0.0000  0.0000  1.0000  0.0000  0.0000      0.0000  0.0000  0.0000  0.0000  0.0000  0.0000  0.0000  0.0000  0.0000  0.0000
  o =  0.5996  v =  0.0000  0.0000  1.0000  0.0000  0.0000  0.0000  0.0000  0.0000  0.0000  0.0000      0.0000  0.0000  0.0000  0.0000  0.0000  0.0000  0.0000  0.0000  0.0000  0.0000
  o =  0.6648  v =  0.0000  0.0000  0.0000  0.0000  1.0000  0.0000  0.0000  0.0000  0.0000  0.0000      0.0000  0.0000  0.0000  0.0000  0.0000  0.0000  0.0000  0.0000  0.0000  0.0000
  o =  1.0520  v =  0.0000 -0.0303  0.0000 -0.9995  0.0000  0.0000  0.0000  0.0000  0.0000  0.0000      0.0000  0.0000  0.0000  0.0000  0.0000  0.0000  0.0000  0.0000  0.0000  0.0000
  o =  1.0520  v =  0.0000  0.9995  0.0000 -0.0303  0.0000  0.0000  0.0000  0.0000  0.0000  0.0000      0.0000  0.0000  0.0000  0.0000  0.0000  0.0000  0.0000  0.0000  0.0000  0.0000
  o =  1.1043  v =  1.0000  0.0000  0.0000  0.0000  0.0000  0.0000  0.0000  0.0000  0.0000  0.0000      0.0000  0.0000  0.0000  0.0000  0.0000  0.0000  0.0000  0.0000  0.0000  0.0000
atom =   7  type =  2  l = 2
 
 onsite density matrix
 
spin component  1
 
  1.1042  0.0000  0.0000  0.0000  0.0000
  0.0000  1.1175  0.0000  0.0000  0.0000
  0.0000  0.0000  0.6324  0.0000  0.0000
  0.0000  0.0000  0.0000  1.1175  0.0000
  0.0000  0.0000  0.0000  0.0000  0.6584
 
spin component  2
 
  0.1151  0.0000  0.0000  0.0000  0.0000
  0.0000  0.0900  0.0000  0.0000  0.0000
  0.0000  0.0000  0.3254  0.0000  0.0000
  0.0000  0.0000  0.0000  0.0900  0.0000
  0.0000  0.0000  0.0000  0.0000  0.3157
 
 occupancies and eigenvectors
 
  o =  0.0900  v =  0.0000  0.0000  0.0000  0.0000  0.0000  0.0000 -0.9996  0.0000  0.0265  0.0000      0.0000  0.0000  0.0000  0.0000  0.0000  0.0000  0.0000  0.0000  0.0000  0.0000
  o =  0.0900  v =  0.0000  0.0000  0.0000  0.0000  0.0000  0.0000  0.0265  0.0000  0.9996  0.0000      0.0000  0.0000  0.0000  0.0000  0.0000  0.0000  0.0000  0.0000  0.0000  0.0000
  o =  0.1151  v =  0.0000  0.0000  0.0000  0.0000  0.0000  1.0000  0.0000  0.0000  0.0000  0.0000      0.0000  0.0000  0.0000  0.0000  0.0000  0.0000  0.0000  0.0000  0.0000  0.0000
  o =  0.3157  v =  0.0000  0.0000  0.0000  0.0000  0.0000  0.0000  0.0000  0.0000  0.0000  1.0000      0.0000  0.0000  0.0000  0.0000  0.0000  0.0000  0.0000  0.0000  0.0000  0.0000
  o =  0.3254  v =  0.0000  0.0000  0.0000  0.0000  0.0000  0.0000  0.0000 -1.0000  0.0000  0.0000      0.0000  0.0000  0.0000  0.0000  0.0000  0.0000  0.0000  0.0000  0.0000  0.0000
  o =  0.6324  v =  0.0000  0.0000 -1.0000  0.0000  0.0000  0.0000  0.0000  0.0000  0.0000  0.0000      0.0000  0.0000  0.0000  0.0000  0.0000  0.0000  0.0000  0.0000  0.0000  0.0000
  o =  0.6584  v =  0.0000  0.0000  0.0000  0.0000  1.0000  0.0000  0.0000  0.0000  0.0000  0.0000      0.0000  0.0000  0.0000  0.0000  0.0000  0.0000  0.0000  0.0000  0.0000  0.0000
  o =  1.1042  v =  1.0000  0.0000  0.0000  0.0000  0.0000  0.0000  0.0000  0.0000  0.0000  0.0000      0.0000  0.0000  0.0000  0.0000  0.0000  0.0000  0.0000  0.0000  0.0000  0.0000
  o =  1.1175  v =  0.0000  0.9972  0.0000 -0.0749  0.0000  0.0000  0.0000  0.0000  0.0000  0.0000      0.0000  0.0000  0.0000  0.0000  0.0000  0.0000  0.0000  0.0000  0.0000  0.0000
  o =  1.1175  v =  0.0000 -0.0749  0.0000 -0.9972  0.0000  0.0000  0.0000  0.0000  0.0000  0.0000      0.0000  0.0000  0.0000  0.0000  0.0000  0.0000  0.0000  0.0000  0.0000  0.0000
atom =   8  type =  2  l = 2
 
 onsite density matrix
 
spin component  1
 
  1.1001  0.0000  0.0000  0.0000  0.0000
  0.0000  1.0252  0.0000  0.0000  0.0000
  0.0000  0.0000  0.5384  0.0000  0.0000
  0.0000  0.0000  0.0000  1.0252  0.0000
  0.0000  0.0000  0.0000  0.0000  0.6799
 
spin component  2
 
  0.1180  0.0000  0.0000  0.0000  0.0000
  0.0000  0.2442  0.0000  0.0000  0.0000
  0.0000  0.0000  0.3943  0.0000  0.0000
  0.0000  0.0000  0.0000  0.2442  0.0000
  0.0000  0.0000  0.0000  0.0000  0.3012
 
 occupancies and eigenvectors
 
  o =  0.1180  v =  0.0000  0.0000  0.0000  0.0000  0.0000  1.0000  0.0000  0.0000  0.0000  0.0000      0.0000  0.0000  0.0000  0.0000  0.0000  0.0000  0.0000  0.0000  0.0000  0.0000
  o =  0.2442  v =  0.0000  0.0000  0.0000  0.0000  0.0000  0.0000 -0.9999  0.0000  0.0157  0.0000      0.0000  0.0000  0.0000  0.0000  0.0000  0.0000  0.0000  0.0000  0.0000  0.0000
  o =  0.2442  v =  0.0000  0.0000  0.0000  0.0000  0.0000  0.0000 -0.0157  0.0000 -0.9999  0.0000      0.0000  0.0000  0.0000  0.0000  0.0000  0.0000  0.0000  0.0000  0.0000  0.0000
  o =  0.3012  v =  0.0000  0.0000  0.0000  0.0000  0.0000  0.0000  0.0000  0.0000  0.0000  1.0000      0.0000  0.0000  0.0000  0.0000  0.0000  0.0000  0.0000  0.0000  0.0000  0.0000
  o =  0.3943  v =  0.0000  0.0000  0.0000  0.0000  0.0000  0.0000  0.0000  1.0000  0.0000  0.0000      0.0000  0.0000  0.0000  0.0000  0.0000  0.0000  0.0000  0.0000  0.0000  0.0000
  o =  0.5384  v =  0.0000  0.0000  1.0000  0.0000  0.0000  0.0000  0.0000  0.0000  0.0000  0.0000      0.0000  0.0000  0.0000  0.0000  0.0000  0.0000  0.0000  0.0000  0.0000  0.0000
  o =  0.6799  v =  0.0000  0.0000  0.0000  0.0000 -1.0000  0.0000  0.0000  0.0000  0.0000  0.0000      0.0000  0.0000  0.0000  0.0000  0.0000  0.0000  0.0000  0.0000  0.0000  0.0000
  o =  1.0252  v =  0.0000  0.9996  0.0000 -0.0267  0.0000  0.0000  0.0000  0.0000  0.0000  0.0000      0.0000  0.0000  0.0000  0.0000  0.0000  0.0000  0.0000  0.0000  0.0000  0.0000
  o =  1.0252  v =  0.0000 -0.0267  0.0000 -0.9996  0.0000  0.0000  0.0000  0.0000  0.0000  0.0000      0.0000  0.0000  0.0000  0.0000  0.0000  0.0000  0.0000  0.0000  0.0000  0.0000
  o =  1.1001  v =  1.0000  0.0000  0.0000  0.0000  0.0000  0.0000  0.0000  0.0000  0.0000  0.0000      0.0000  0.0000  0.0000  0.0000  0.0000  0.0000  0.0000  0.0000  0.0000  0.0000
atom =   9  type =  3  l = 0
 
 onsite density matrix
 
spin component  1
 
  0.8392
 
spin component  2
 
  1.0242
 
 occupancies and eigenvectors
 
  o =  0.8392  v =  1.0000  0.0000      0.0000  0.0000
  o =  1.0242  v =  0.0000  1.0000      0.0000  0.0000
atom =  10  type =  3  l = 0
 
 onsite density matrix
 
spin component  1
 
  0.8448
 
spin component  2
 
  1.0208
 
 occupancies and eigenvectors
 
  o =  0.8448  v =  1.0000  0.0000      0.0000  0.0000
  o =  1.0208  v =  0.0000  1.0000      0.0000  0.0000
atom =  11  type =  3  l = 0
 
 onsite density matrix
 
spin component  1
 
  0.8445
 
spin component  2
 
  1.0208
 
 occupancies and eigenvectors
 
  o =  0.8445  v =  1.0000  0.0000      0.0000  0.0000
  o =  1.0208  v =  0.0000  1.0000      0.0000  0.0000
atom =  12  type =  3  l = 0
 
 onsite density matrix
 
spin component  1
 
  0.8450
 
spin component  2
 
  1.0211
 
 occupancies and eigenvectors
 
  o =  0.8450  v =  1.0000  0.0000      0.0000  0.0000
  o =  1.0211  v =  0.0000  1.0000      0.0000  0.0000
atom =  13  type =  3  l = 0
 
 onsite density matrix
 
spin component  1
 
  0.8392
 
spin component  2
 
  1.0242
 
 occupancies and eigenvectors
 
  o =  0.8392  v =  1.0000  0.0000      0.0000  0.0000
  o =  1.0242  v =  0.0000  1.0000      0.0000  0.0000
atom =  14  type =  3  l = 0
 
 onsite density matrix
 
spin component  1
 
  0.8448
 
spin component  2
 
  1.0208
 
 occupancies and eigenvectors
 
  o =  0.8448  v =  1.0000  0.0000      0.0000  0.0000
  o =  1.0208  v =  0.0000  1.0000      0.0000  0.0000
atom =  15  type =  3  l = 0
 
 onsite density matrix
 
spin component  1
 
  0.8445
 
spin component  2
 
  1.0208
 
 occupancies and eigenvectors
 
  o =  0.8445  v =  1.0000  0.0000      0.0000  0.0000
  o =  1.0208  v =  0.0000  1.0000      0.0000  0.0000
atom =  16  type =  3  l = 0
 
 onsite density matrix
 
spin component  1
 
  0.8450
 
spin component  2
 
  1.0211
 
 occupancies and eigenvectors
 
  o =  0.8450  v =  1.0000  0.0000      0.0000  0.0000
  o =  1.0211  v =  0.0000  1.0000      0.0000  0.0000
atom =  17  type =  3  l = 0
 
 onsite density matrix
 
spin component  1
 
  0.8433
 
spin component  2
 
  1.0218
 
 occupancies and eigenvectors
 
  o =  0.8433  v =  1.0000  0.0000      0.0000  0.0000
  o =  1.0218  v =  0.0000  1.0000      0.0000  0.0000
atom =  18  type =  3  l = 0
 
 onsite density matrix
 
spin component  1
 
  0.8453
 
spin component  2
 
  1.0202
 
 occupancies and eigenvectors
 
  o =  0.8453  v =  1.0000  0.0000      0.0000  0.0000
  o =  1.0202  v =  0.0000  1.0000      0.0000  0.0000
atom =  19  type =  3  l = 0
 
 onsite density matrix
 
spin component  1
 
  0.8439
 
spin component  2
 
  1.0209
 
 occupancies and eigenvectors
 
  o =  0.8439  v =  1.0000  0.0000      0.0000  0.0000
  o =  1.0209  v =  0.0000  1.0000      0.0000  0.0000
atom =  20  type =  3  l = 0
 
 onsite density matrix
 
spin component  1
 
  0.8407
 
spin component  2
 
  1.0236
 
 occupancies and eigenvectors
 
  o =  0.8407  v =  1.0000  0.0000      0.0000  0.0000
  o =  1.0236  v =  0.0000  1.0000      0.0000  0.0000
    EDDIAG:  cpu time    0.6139: real time    0.6150
  RMM-DIIS:  cpu time    2.3036: real time    2.3099
    ORTHCH:  cpu time    0.1450: real time    0.1457
       DOS:  cpu time    0.0020: real time    0.0019
    CHARGE:  cpu time    0.1590: real time    0.1594
    MIXING:  cpu time    0.0050: real time    0.0042
    --------------------------------------------
      LOOP:  cpu time    3.7294: real time    3.7413

 eigenvalue-minimisations  :  1445
 total energy-change (2. order) :-0.1214958E+03  (-0.5883998E+02)
 number of electron     167.9999101 magnetization      19.0800485
 augmentation part       58.5957894 magnetization      18.4766627

 DIPCOR: dipole corrections for dipol
 direction  3 min pos   198,
 dipolmoment           0.000000      0.000000      1.121028 electrons x Angstroem
 Tr[quadrupol]      -492.431559

 energy correction for charged system         0.000000 eV
 dipol+quadrupol energy correction           -0.246383 eV
 added-field ion interaction        -27.239267 eV  (added to PSCEN)


 Broyden mixing:
  rms(total) = 0.90925E+01    rms(broyden)= 0.90867E+01
  rms(prec ) = 0.11636E+02
  weight for this iteration     100.00

 eigenvalues of (default mixing * dielectric matrix)
  average eigenvalue GAMMA=   0.3967
  0.3967

 Free energy of the ion-electron system (eV)
  ---------------------------------------------------
  alpha Z        PSCENC =       568.43748678
  Ewald energy   TEWEN  =     92138.10995991
  -Hartree energ DENC   =   -108639.08176531
  -exchange      EXHF   =         0.00000000
  -V(xc)+E(xc)   XCENC  =       762.34333698
  PAW double counting   =     12928.86538330   -13212.03694004
  entropy T*S    EENTRO =        -0.00750496
  eigenvalues    EBANDS =     -3226.54194578
  atomic energy  EATOM  =     18407.79351682
  Solvation  Ediel_sol  =         0.00000000
  ---------------------------------------------------
  free energy    TOTEN  =      -272.11847231 eV

  energy without entropy =     -272.11096736  energy(sigma->0) =     -272.11471984


--------------------------------------------------------------------------------------------------------




----------------------------------------- Iteration    1(   7)  ---------------------------------------


    POTLOK:  cpu time    0.4449: real time    0.4453
    SETDIJ:  cpu time    0.0430: real time    0.0438
atom =   1  type =  1  l = 0
 
 onsite density matrix
 
spin component  1
 
  1.0034
 
spin component  2
 
  1.0735
 
 occupancies and eigenvectors
 
  o =  1.0034  v =  1.0000  0.0000      0.0000  0.0000
  o =  1.0735  v =  0.0000  1.0000      0.0000  0.0000
atom =   2  type =  1  l = 0
 
 onsite density matrix
 
spin component  1
 
  1.0032
 
spin component  2
 
  1.0719
 
 occupancies and eigenvectors
 
  o =  1.0032  v =  1.0000  0.0000      0.0000  0.0000
  o =  1.0719  v =  0.0000  1.0000      0.0000  0.0000
atom =   3  type =  1  l = 0
 
 onsite density matrix
 
spin component  1
 
  1.0030
 
spin component  2
 
  1.0710
 
 occupancies and eigenvectors
 
  o =  1.0030  v =  1.0000  0.0000      0.0000  0.0000
  o =  1.0710  v =  0.0000  1.0000      0.0000  0.0000
atom =   4  type =  1  l = 0
 
 onsite density matrix
 
spin component  1
 
  1.0003
 
spin component  2
 
  1.0713
 
 occupancies and eigenvectors
 
  o =  1.0003  v =  1.0000  0.0000      0.0000  0.0000
  o =  1.0713  v =  0.0000  1.0000      0.0000  0.0000
atom =   5  type =  2  l = 2
 
 onsite density matrix
 
spin component  1
 
  0.8498  0.0000  0.0000  0.0000  0.0000
  0.0000  0.9617  0.0000  0.0000  0.0000
  0.0000  0.0000  0.5154  0.0000  0.0000
  0.0000  0.0000  0.0000  0.9617  0.0000
  0.0000  0.0000  0.0000  0.0000  0.4966
 
spin component  2
 
  0.3123  0.0000  0.0000  0.0000  0.0000
  0.0000  0.2679  0.0000  0.0000  0.0000
  0.0000  0.0000  0.4839  0.0000  0.0000
  0.0000  0.0000  0.0000  0.2679  0.0000
  0.0000  0.0000  0.0000  0.0000  0.5269
 
 occupancies and eigenvectors
 
  o =  0.2679  v =  0.0000  0.0000  0.0000  0.0000  0.0000  0.0000 -0.1011  0.0000 -0.9949  0.0000      0.0000  0.0000  0.0000  0.0000  0.0000  0.0000  0.0000  0.0000  0.0000  0.0000
  o =  0.2679  v =  0.0000  0.0000  0.0000  0.0000  0.0000  0.0000 -0.9949  0.0000  0.1011  0.0000      0.0000  0.0000  0.0000  0.0000  0.0000  0.0000  0.0000  0.0000  0.0000  0.0000
  o =  0.3123  v =  0.0000  0.0000  0.0000  0.0000  0.0000  1.0000  0.0000  0.0000  0.0000  0.0000      0.0000  0.0000  0.0000  0.0000  0.0000  0.0000  0.0000  0.0000  0.0000  0.0000
  o =  0.4839  v =  0.0000  0.0000  0.0000  0.0000  0.0000  0.0000  0.0000  1.0000  0.0000  0.0000      0.0000  0.0000  0.0000  0.0000  0.0000  0.0000  0.0000  0.0000  0.0000  0.0000
  o =  0.4966  v =  0.0000  0.0000  0.0000  0.0000 -1.0000  0.0000  0.0000  0.0000  0.0000  0.0000      0.0000  0.0000  0.0000  0.0000  0.0000  0.0000  0.0000  0.0000  0.0000  0.0000
  o =  0.5154  v =  0.0000  0.0000 -1.0000  0.0000  0.0000  0.0000  0.0000  0.0000  0.0000  0.0000      0.0000  0.0000  0.0000  0.0000  0.0000  0.0000  0.0000  0.0000  0.0000  0.0000
  o =  0.5269  v =  0.0000  0.0000  0.0000  0.0000  0.0000  0.0000  0.0000  0.0000  0.0000 -1.0000      0.0000  0.0000  0.0000  0.0000  0.0000  0.0000  0.0000  0.0000  0.0000  0.0000
  o =  0.8498  v =  1.0000  0.0000  0.0000  0.0000  0.0000  0.0000  0.0000  0.0000  0.0000  0.0000      0.0000  0.0000  0.0000  0.0000  0.0000  0.0000  0.0000  0.0000  0.0000  0.0000
  o =  0.9617  v =  0.0000 -0.9997  0.0000 -0.0225  0.0000  0.0000  0.0000  0.0000  0.0000  0.0000      0.0000  0.0000  0.0000  0.0000  0.0000  0.0000  0.0000  0.0000  0.0000  0.0000
  o =  0.9617  v =  0.0000  0.0225  0.0000 -0.9997  0.0000  0.0000  0.0000  0.0000  0.0000  0.0000      0.0000  0.0000  0.0000  0.0000  0.0000  0.0000  0.0000  0.0000  0.0000  0.0000
atom =   6  type =  2  l = 2
 
 onsite density matrix
 
spin component  1
 
  0.9241  0.0000  0.0000  0.0000  0.0000
  0.0000  0.9006  0.0000  0.0000  0.0000
  0.0000  0.0000  0.6123  0.0000  0.0000
  0.0000  0.0000  0.0000  0.9006  0.0000
  0.0000  0.0000  0.0000  0.0000  0.6503
 
spin component  2
 
  0.3768  0.0000  0.0000  0.0000  0.0000
  0.0000  0.4308  0.0000  0.0000  0.0000
  0.0000  0.0000  0.4659  0.0000  0.0000
  0.0000  0.0000  0.0000  0.4308  0.0000
  0.0000  0.0000  0.0000  0.0000  0.4527
 
 occupancies and eigenvectors
 
  o =  0.3768  v =  0.0000  0.0000  0.0000  0.0000  0.0000  1.0000  0.0000  0.0000  0.0000  0.0000      0.0000  0.0000  0.0000  0.0000  0.0000  0.0000  0.0000  0.0000  0.0000  0.0000
  o =  0.4308  v =  0.0000  0.0000  0.0000  0.0000  0.0000  0.0000 -0.0699  0.0000 -0.9976  0.0000      0.0000  0.0000  0.0000  0.0000  0.0000  0.0000  0.0000  0.0000  0.0000  0.0000
  o =  0.4308  v =  0.0000  0.0000  0.0000  0.0000  0.0000  0.0000 -0.9976  0.0000  0.0699  0.0000      0.0000  0.0000  0.0000  0.0000  0.0000  0.0000  0.0000  0.0000  0.0000  0.0000
  o =  0.4527  v =  0.0000  0.0000  0.0000  0.0000  0.0000  0.0000  0.0000  0.0000  0.0000  1.0000      0.0000  0.0000  0.0000  0.0000  0.0000  0.0000  0.0000  0.0000  0.0000  0.0000
  o =  0.4659  v =  0.0000  0.0000  0.0000  0.0000  0.0000  0.0000  0.0000  1.0000  0.0000  0.0000      0.0000  0.0000  0.0000  0.0000  0.0000  0.0000  0.0000  0.0000  0.0000  0.0000
  o =  0.6123  v =  0.0000  0.0000 -1.0000  0.0000  0.0000  0.0000  0.0000  0.0000  0.0000  0.0000      0.0000  0.0000  0.0000  0.0000  0.0000  0.0000  0.0000  0.0000  0.0000  0.0000
  o =  0.6503  v =  0.0000  0.0000  0.0000  0.0000  1.0000  0.0000  0.0000  0.0000  0.0000  0.0000      0.0000  0.0000  0.0000  0.0000  0.0000  0.0000  0.0000  0.0000  0.0000  0.0000
  o =  0.9006  v =  0.0000  0.9998  0.0000 -0.0200  0.0000  0.0000  0.0000  0.0000  0.0000  0.0000      0.0000  0.0000  0.0000  0.0000  0.0000  0.0000  0.0000  0.0000  0.0000  0.0000
  o =  0.9006  v =  0.0000 -0.0200  0.0000 -0.9998  0.0000  0.0000  0.0000  0.0000  0.0000  0.0000      0.0000  0.0000  0.0000  0.0000  0.0000  0.0000  0.0000  0.0000  0.0000  0.0000
  o =  0.9241  v =  1.0000  0.0000  0.0000  0.0000  0.0000  0.0000  0.0000  0.0000  0.0000  0.0000      0.0000  0.0000  0.0000  0.0000  0.0000  0.0000  0.0000  0.0000  0.0000  0.0000
atom =   7  type =  2  l = 2
 
 onsite density matrix
 
spin component  1
 
  0.9810  0.0000  0.0000  0.0000  0.0000
  0.0000  0.9709  0.0000  0.0000  0.0000
  0.0000  0.0000  0.6445  0.0000  0.0000
  0.0000  0.0000  0.0000  0.9709  0.0000
  0.0000  0.0000  0.0000  0.0000  0.6655
 
spin component  2
 
  0.2836  0.0000  0.0000  0.0000  0.0000
  0.0000  0.2903  0.0000  0.0000  0.0000
  0.0000  0.0000  0.4082  0.0000  0.0000
  0.0000  0.0000  0.0000  0.2903  0.0000
  0.0000  0.0000  0.0000  0.0000  0.3956
 
 occupancies and eigenvectors
 
  o =  0.2836  v =  0.0000  0.0000  0.0000  0.0000  0.0000  1.0000  0.0000  0.0000  0.0000  0.0000      0.0000  0.0000  0.0000  0.0000  0.0000  0.0000  0.0000  0.0000  0.0000  0.0000
  o =  0.2903  v =  0.0000  0.0000  0.0000  0.0000  0.0000  0.0000 -0.9998  0.0000  0.0177  0.0000      0.0000  0.0000  0.0000  0.0000  0.0000  0.0000  0.0000  0.0000  0.0000  0.0000
  o =  0.2903  v =  0.0000  0.0000  0.0000  0.0000  0.0000  0.0000  0.0177  0.0000  0.9998  0.0000      0.0000  0.0000  0.0000  0.0000  0.0000  0.0000  0.0000  0.0000  0.0000  0.0000
  o =  0.3956  v =  0.0000  0.0000  0.0000  0.0000  0.0000  0.0000  0.0000  0.0000  0.0000 -1.0000      0.0000  0.0000  0.0000  0.0000  0.0000  0.0000  0.0000  0.0000  0.0000  0.0000
  o =  0.4082  v =  0.0000  0.0000  0.0000  0.0000  0.0000  0.0000  0.0000 -1.0000  0.0000  0.0000      0.0000  0.0000  0.0000  0.0000  0.0000  0.0000  0.0000  0.0000  0.0000  0.0000
  o =  0.6445  v =  0.0000  0.0000 -1.0000  0.0000  0.0000  0.0000  0.0000  0.0000  0.0000  0.0000      0.0000  0.0000  0.0000  0.0000  0.0000  0.0000  0.0000  0.0000  0.0000  0.0000
  o =  0.6655  v =  0.0000  0.0000  0.0000  0.0000  1.0000  0.0000  0.0000  0.0000  0.0000  0.0000      0.0000  0.0000  0.0000  0.0000  0.0000  0.0000  0.0000  0.0000  0.0000  0.0000
  o =  0.9709  v =  0.0000  0.9999  0.0000 -0.0169  0.0000  0.0000  0.0000  0.0000  0.0000  0.0000      0.0000  0.0000  0.0000  0.0000  0.0000  0.0000  0.0000  0.0000  0.0000  0.0000
  o =  0.9709  v =  0.0000 -0.0169  0.0000 -0.9999  0.0000  0.0000  0.0000  0.0000  0.0000  0.0000      0.0000  0.0000  0.0000  0.0000  0.0000  0.0000  0.0000  0.0000  0.0000  0.0000
[...]
  band No.  band energies     occupation 
      1     -53.8535      1.00000
      2     -53.8534      1.00000
      3     -53.8482      1.00000
      4     -53.7926      1.00000
      5     -53.7780      1.00000
      6     -53.7779      1.00000
      7     -53.7688      1.00000
      8     -53.7322      1.00000
      9     -53.7321      1.00000
     10     -53.6950      1.00000
     11     -53.5717      1.00000
     12     -53.5716      1.00000
     13     -34.2417      1.00000
     14     -33.6405      1.00000
     15     -33.5863      1.00000
     16     -33.4373      1.00000
     17     -18.4563      1.00000
     18     -18.3110      1.00000
     19     -18.1217      1.00000
     20     -18.0768      1.00000
     21     -17.8318      1.00000
     22     -17.7768      1.00000
     23     -17.6584      1.00000
     24     -17.5881      1.00000
     25     -17.5253      1.00000
     26     -17.2649      1.00000
     27     -17.1921      1.00000
     28     -17.1148      1.00000
     29     -16.4648      1.00000
     30     -16.1865      1.00000
     31     -15.9880      1.00000
     32     -15.7889      1.00000
     33     -15.7664      1.00000
     34     -15.7336      1.00000
     35     -15.6143      1.00000
     36     -15.5717      1.00000
     37     -15.5209      1.00000
     38     -15.4174      1.00000
     39     -15.3872      1.00000
     40     -15.3230      1.00000
     41      -6.8717      1.00000
     42      -6.6565      1.00000
     43      -6.4148      1.00000
     44      -6.0450      1.00000
     45      -5.2887      1.00000
     46      -5.1617      1.00000
     47      -5.1165      1.00000
     48      -5.0628      1.00000
     49      -5.0503      1.00000
     50      -4.8638      1.00000
     51      -4.8420      1.00000
     52      -4.8246      1.00000
     53      -4.6020      1.00000
     54      -4.5345      1.00000
     55      -4.5132      1.00000
     56      -4.3244      1.00000
     57      -4.2347      1.00000
     58      -4.1376      1.00000
     59      -4.0556      1.00000
     60      -3.8507      1.00000
     61      -3.7951      1.00000
     62      -3.3649      1.00000
     63      -3.2527      1.00000
     64      -3.1187      1.00000
     65      -2.4527      1.00000
     66      -2.2724      1.00000
     67      -2.0056      1.00000
     68      -1.9046      1.00000
     69      -1.6427      1.00000
     70      -1.6089      1.00000
     71      -1.5032      1.00000
     72      -1.3505      0.99975
     73      -1.2793      0.92793
     74      -1.2456      0.69410
     75      -1.1781      0.08066
     76      -0.6781      0.00000
     77       1.1522      0.00000
     78       1.3870      0.00000
     79       1.4092      0.00000
     80       1.4542      0.00000
     81       1.5095      0.00000
     82       1.5588      0.00000
     83       1.6088      0.00000
     84       1.6503      0.00000
     85       1.6521      0.00000
     86       1.7213      0.00000
     87       1.7373      0.00000
     88       1.7746      0.00000
     89       1.8745      0.00000
     90       1.8918      0.00000
     91       2.7319      0.00000
     92       3.4740      0.00000
     93       3.4803      0.00000
     94       3.5756      0.00000
     95       3.6368      0.00000
     96       3.8317      0.00000
     97       3.9534      0.00000
     98       5.1049      0.00000
     99       5.3714      0.00000
    100       6.1369      0.00000
    101       6.3661      0.00000
    102       6.4334      0.00000
    103       6.5992      0.00000
    104       6.6301      0.00000
    105       6.6819      0.00000
    106       6.9175      0.00000
    107       6.9496      0.00000
    108       7.0805      0.00000
    109       7.3624      0.00000
    110       7.5086      0.00000


--------------------------------------------------------------------------------------------------------


 soft charge-density along one line, spin component           1
         0         1         2         3         4         5         6         7         8         9
 total charge-density along one line
 
 soft charge-density along one line, spin component           2
         0         1         2         3         4         5         6         7         8         9
 total charge-density along one line
 
 pseudopotential strength for first ion, spin component:           1
-10.978  -8.648   0.000  -0.001   0.000   0.000   0.000   0.000
 -8.648  -6.103   0.000  -0.003   0.000   0.000   0.000   0.000
  0.000   0.000 -15.269   0.000   0.000   0.148   0.000   0.000
 -0.001  -0.003   0.000 -15.266   0.000   0.000   0.148   0.000
  0.000   0.000   0.000   0.000 -15.269   0.000   0.000   0.148
  0.000   0.000   0.148   0.000   0.000   0.047   0.000   0.000
  0.000   0.000   0.000   0.148   0.000   0.000   0.047   0.000
  0.000   0.000   0.000   0.000   0.148   0.000   0.000   0.047
  0.000   0.000   0.000   0.000   0.000   0.000   0.000   0.000
  0.000   0.000   0.000   0.000   0.000   0.000   0.000   0.000
  0.001   0.001   0.000  -0.001   0.000   0.000   0.000   0.000
  0.000   0.000   0.000   0.000   0.000   0.000   0.000   0.000
  0.000   0.000   0.000   0.000   0.000   0.000   0.000   0.000
  0.000   0.000   0.000   0.000   0.000   0.000   0.000   0.000
  0.000   0.000   0.000   0.000   0.000   0.000   0.000   0.000
  0.000   0.000   0.000   0.000   0.000   0.000   0.000   0.000
  0.000   0.000   0.000   0.000   0.000   0.000   0.000   0.000
  0.000   0.000   0.000   0.000   0.000   0.000   0.000   0.000
 pseudopotential strength for first ion, spin component:           2
-10.980  -8.646   0.000  -0.001   0.000   0.000   0.000   0.000
 -8.646  -6.103   0.000  -0.003   0.000   0.000   0.000   0.000
  0.000   0.000 -15.268   0.000   0.000   0.148   0.000   0.000
 -0.001  -0.003   0.000 -15.265   0.000   0.000   0.148   0.000
  0.000   0.000   0.000   0.000 -15.268   0.000   0.000   0.148
  0.000   0.000   0.148   0.000   0.000   0.047   0.000   0.000
  0.000   0.000   0.000   0.148   0.000   0.000   0.047   0.000
  0.000   0.000   0.000   0.000   0.148   0.000   0.000   0.047
  0.000   0.000   0.000   0.000   0.000   0.000   0.000   0.000
  0.000   0.000   0.000   0.000   0.000   0.000   0.000   0.000
  0.001   0.001   0.000  -0.001   0.000   0.000   0.000   0.000
  0.000   0.000   0.000   0.000   0.000   0.000   0.000   0.000
  0.000   0.000   0.000   0.000   0.000   0.000   0.000   0.000
  0.000   0.000   0.000   0.000   0.000   0.000   0.000   0.000
  0.000   0.000   0.000   0.000   0.000   0.000   0.000   0.000
  0.000   0.000   0.000   0.000   0.000   0.000   0.000   0.000
  0.000   0.000   0.000   0.000   0.000   0.000   0.000   0.000
  0.000   0.000   0.000   0.000   0.000   0.000   0.000   0.000
 total augmentation occupancy for first ion, spin component:           1
  2.111  -0.235   0.000  -0.004   0.000   0.000   0.007   0.000   0.000   0.000  -0.002   0.000   0.000   0.000   0.000  -0.003
 -0.235   0.482   0.000   0.009   0.000   0.000  -0.001   0.000   0.000   0.000   0.001   0.000   0.000   0.000   0.000   0.008
  0.000   0.000   2.025   0.000   0.000   0.087   0.000   0.000   0.000   0.004   0.000   0.000   0.000   0.000  -0.001   0.000
 -0.004   0.009   0.000   2.026   0.000   0.000   0.079   0.000   0.000   0.000   0.007   0.000   0.000   0.000   0.000  -0.010
  0.000   0.000   0.000   0.000   2.025   0.000   0.000   0.087   0.000   0.000   0.000   0.004   0.000   0.000   0.000   0.000
  0.000   0.000   0.087   0.000   0.000   0.301   0.000   0.000   0.000  -0.002   0.000   0.000   0.000   0.000  -0.001   0.000
  0.007  -0.001   0.000   0.079   0.000   0.000   0.298   0.000   0.000   0.000   0.000   0.000   0.000   0.000   0.000  -0.013
  0.000   0.000   0.000   0.000   0.087   0.000   0.000   0.301   0.000   0.000   0.000  -0.002   0.000   0.000   0.000   0.000
  0.000   0.000   0.000   0.000   0.000   0.000   0.000   0.000   0.090   0.000   0.000   0.000   0.000  -0.415   0.000   0.000
  0.000   0.000   0.004   0.000   0.000  -0.002   0.000   0.000   0.000   0.092   0.000   0.000   0.000   0.000  -0.419   0.000
 -0.002   0.001   0.000   0.007   0.000   0.000   0.000   0.000   0.000   0.000   0.064   0.000   0.000   0.000   0.000  -0.280
  0.000   0.000   0.000   0.000   0.004   0.000   0.000  -0.002   0.000   0.000   0.000   0.092   0.000   0.000   0.000   0.000
  0.000   0.000   0.000   0.000   0.000   0.000   0.000   0.000   0.000   0.000   0.000   0.000   0.066   0.000   0.000   0.000
  0.000   0.000   0.000   0.000   0.000   0.000   0.000   0.000  -0.415   0.000   0.000   0.000   0.000   2.057   0.000   0.000
  0.000   0.000  -0.001   0.000   0.000  -0.001   0.000   0.000   0.000  -0.419   0.000   0.000   0.000   0.000   2.045   0.000
 -0.003   0.008   0.000  -0.010   0.000   0.000  -0.013   0.000   0.000   0.000  -0.280   0.000   0.000   0.000   0.000   1.304
  0.000   0.000   0.000   0.000  -0.001   0.000   0.000  -0.001   0.000   0.000   0.000  -0.419   0.000   0.000   0.000   0.000
  0.000   0.000   0.000   0.000   0.000   0.000   0.000   0.000   0.000   0.000   0.000   0.000  -0.290   0.000   0.000   0.000
 total augmentation occupancy for first ion, spin component:           2
  0.002  -0.004   0.000   0.000   0.000   0.000   0.000   0.000   0.000   0.000   0.000   0.000   0.000   0.000   0.000   0.000
 -0.004   0.008   0.000   0.000   0.000   0.000   0.001   0.000   0.000   0.000   0.000   0.000   0.000   0.000   0.000   0.001
  0.000   0.000   0.001   0.000   0.000  -0.001   0.000   0.000   0.000   0.000   0.000   0.000   0.000   0.000  -0.001   0.000
  0.000   0.000   0.000   0.000   0.000   0.000   0.000   0.000   0.000   0.000   0.000   0.000   0.000   0.000   0.000   0.000
  0.000   0.000   0.000   0.000   0.001   0.000   0.000  -0.001   0.000   0.000   0.000   0.000   0.000   0.000   0.000   0.000
  0.000   0.000  -0.001   0.000   0.000   0.003   0.000   0.000   0.000  -0.001   0.000   0.000   0.000   0.000   0.002   0.000
  0.000   0.001   0.000   0.000   0.000   0.000   0.000   0.000   0.000   0.000   0.001   0.000   0.000   0.000   0.000  -0.001
  0.000   0.000   0.000   0.000  -0.001   0.000   0.000   0.003   0.000   0.000   0.000  -0.001   0.000   0.000   0.000   0.000
  0.000   0.000   0.000   0.000   0.000   0.000   0.000   0.000  -0.001   0.000   0.000   0.000   0.000   0.005   0.000   0.000
  0.000   0.000   0.000   0.000   0.000  -0.001   0.000   0.000   0.000  -0.001   0.000   0.000   0.000   0.000   0.004   0.000
  0.000   0.000   0.000   0.000   0.000   0.000   0.001   0.000   0.000   0.000   0.003   0.000   0.000   0.000   0.000  -0.012
  0.000   0.000   0.000   0.000   0.000   0.000   0.000  -0.001   0.000   0.000   0.000  -0.001   0.000   0.000   0.000   0.000
  0.000   0.000   0.000   0.000   0.000   0.000   0.000   0.000   0.000   0.000   0.000   0.000   0.004   0.000   0.000   0.000
  0.000   0.000   0.000   0.000   0.000   0.000   0.000   0.000   0.005   0.000   0.000   0.000   0.000  -0.014   0.000   0.000
  0.000   0.000  -0.001   0.000   0.000   0.002   0.000   0.000   0.000   0.004   0.000   0.000   0.000   0.000  -0.009   0.000
  0.000   0.001   0.000   0.000   0.000   0.000  -0.001   0.000   0.000   0.000  -0.012   0.000   0.000   0.000   0.000   0.050
  0.000   0.000   0.000   0.000  -0.001   0.000   0.000   0.002   0.000   0.000   0.000   0.004   0.000   0.000   0.000   0.000
  0.000   0.000   0.000   0.000   0.000   0.000   0.000   0.000   0.000   0.000   0.000   0.000  -0.018   0.000   0.000   0.000


------------------------ aborting loop because EDIFF is reached ----------------------------------------


    CHARGE:  cpu time    0.1540: real time    0.1542
    FORLOC:  cpu time    0.0090: real time    0.0082
    FORNL :  cpu time    0.7129: real time    0.7140
    FORCOR:  cpu time    0.4829: real time    0.4837
    FORHAR:  cpu time    0.0240: real time    0.0237
    MIXING:  cpu time    0.0350: real time    0.0348
    OFIELD:  cpu time    0.0000: real time    0.0001

 VOLUME and BASIS-vectors are now :
 -----------------------------------------------------------------------------
  energy-cutoff  :      300.00
  volume of cell :      461.49
      direct lattice vectors                 reciprocal lattice vectors
     3.886808169  0.000000000  0.000000000     0.257280513  0.000000000  0.000000000
     0.000000000  3.886808169  0.000000000     0.000000000  0.257280513  0.000000000
     0.000000000  0.000000000 30.547232677     0.000000000  0.000000000  0.032736190

  length of vectors
     3.886808169  3.886808169 30.547232677     0.257280513  0.257280513  0.032736190


 FORCES acting on ions
    electron-ion (+dipol)            ewald-force                    non-local-force                 convergence-correction
 -----------------------------------------------------------------------------------------------
   0.315E-12 0.199E-13 0.293E+04   -.539E-12 -.137E-14 -.293E+04   0.155E-17 0.155E-17 0.475E+00   0.759E-13 -.149E-12 0.796E+00
   0.855E-13 0.124E-13 0.464E+03   0.255E-12 -.167E-14 -.466E+03   0.242E-18 0.242E-18 0.738E-01   0.129E-12 -.582E-13 0.138E+01
   -.203E-12 -.437E-13 -.197E+04   0.370E-12 -.677E-15 0.197E+04   0.172E-17 0.173E-17 0.527E+00   -.790E-13 0.903E-13 0.430E+00
   -.394E-12 0.165E-12 -.433E+04   0.370E-12 -.274E-14 0.433E+04   0.166E-16 0.166E-16 0.506E+01   -.373E-13 0.126E-12 -.335E+00
   0.689E-12 -.279E-13 0.586E+04   -.545E-12 -.370E-14 -.585E+04   -.230E-16 -.230E-16 -.704E+01   -.169E-12 -.498E-13 -.302E-03
   0.333E-12 0.196E-12 0.237E+04   -.230E-12 0.118E-13 -.237E+04   0.221E-18 0.221E-18 0.677E-01   -.255E-13 -.342E-13 0.182E+01
   -.255E-13 0.110E-12 -.107E+04   -.219E-13 -.136E-13 0.107E+04   -.226E-18 -.226E-18 -.690E-01   -.398E-13 -.358E-13 0.144E+01
   -.897E-13 0.477E-12 -.452E+04   0.400E-12 0.202E-13 0.452E+04   -.336E-17 -.336E-17 -.103E+01   -.225E-13 -.123E-12 -.489E-01
   0.326E-12 -.143E-12 0.247E+04   -.238E-12 -.293E-14 -.248E+04   0.103E-16 0.103E-16 0.314E+01   0.165E-12 0.305E-13 0.267E-01
   0.188E-12 -.384E-13 0.102E+04   -.110E-12 0.579E-14 -.102E+04   0.855E-18 0.855E-18 0.261E+00   0.111E-12 0.103E-13 0.752E+00
   0.642E-14 0.622E-13 -.453E+03   0.414E-13 0.984E-14 0.452E+03   0.169E-17 0.169E-17 0.516E+00   0.312E-13 -.422E-13 0.600E+00
   -.148E-12 0.190E-12 -.192E+04   0.187E-12 0.712E-14 0.192E+04   0.674E-17 0.674E-17 0.206E+01   -.538E-15 -.113E-12 -.149E-01
   0.229E-12 -.687E-12 0.247E+04   -.285E-12 0.959E-14 -.248E+04   0.103E-16 0.103E-16 0.314E+01   -.627E-14 -.596E-15 0.267E-01
   0.110E-12 0.110E-13 0.102E+04   -.973E-13 0.383E-14 -.102E+04   0.855E-18 0.855E-18 0.261E+00   -.111E-12 0.154E-13 0.752E+00
   -.388E-13 0.157E-12 -.453E+03   -.177E-13 0.928E-15 0.452E+03   0.169E-17 0.169E-17 0.516E+00   0.173E-13 0.603E-13 0.600E+00
   -.168E-12 0.391E-12 -.192E+04   0.187E-12 -.210E-13 0.192E+04   0.674E-17 0.674E-17 0.206E+01   0.102E-12 0.507E-13 -.149E-01
   0.178E-12 0.249E-12 0.176E+04   -.159E-12 -.270E-14 -.176E+04   0.171E-17 0.171E-17 0.522E+00   -.556E-14 0.812E-13 0.501E+00
   0.438E-13 0.274E-13 0.270E+03   0.314E-13 -.638E-14 -.269E+03   -.356E-17 -.356E-17 -.109E+01   0.305E-13 0.396E-13 0.854E+00
   -.969E-13 0.322E-12 -.120E+04   0.131E-12 0.107E-13 0.120E+04   -.305E-18 -.305E-18 -.931E-01   0.257E-13 -.140E-13 0.245E+00
   -.245E-12 0.409E-12 -.279E+04   0.320E-12 -.177E-14 0.281E+04   -.494E-16 -.494E-16 -.151E+02   0.966E-13 -.106E-13 -.238E+00
 -----------------------------------------------------------------------------------------------
   0.109E-11 0.186E-11 -.387E+01   0.510E-13 0.213E-13 -.909E-12   -.187E-16 -.187E-16 -.572E+01   0.287E-12 -.126E-12 0.958E+01
 
 
 POSITION                                       TOTAL-FORCE (eV/Angst)
 -----------------------------------------------------------------------------------
      1.94340      1.94340      1.94340         0.000000      0.000000     -0.373398
      1.94340      1.94340      5.83021         0.000000      0.000000      0.054740
      1.94340      1.94340      9.73001         0.000000      0.000000      0.005522
      1.94340      1.94340     13.46412         0.000000      0.000000      0.005806
      0.00000      0.00000      0.00000         0.000000      0.000000      0.211469
      0.00000      0.00000      3.88681         0.000000      0.000000     -0.020790
      0.00000      0.00000      7.80666         0.000000      0.000000      0.003663
      0.00000      0.00000     11.75889         0.000000      0.000000     -0.001287
      1.94340      0.00000      0.00000         0.000000      0.000000     -0.229182
      1.94340      0.00000      3.88681         0.000000      0.000000      0.037720
      1.94340      0.00000      7.79691         0.000000      0.000000      0.001366
      1.94340      0.00000     11.74223         0.000000      0.000000      0.001778
      0.00000      1.94340      0.00000         0.000000      0.000000     -0.229182
      0.00000      1.94340      3.88681         0.000000      0.000000      0.037720
      0.00000      1.94340      7.79691         0.000000      0.000000      0.001366
      0.00000      1.94340     11.74223         0.000000      0.000000      0.001778
      0.00000      0.00000      1.94340         0.000000      0.000000      0.368864
      0.00000      0.00000      5.83021         0.000000      0.000000      0.111121
      0.00000      0.00000      9.78140         0.000000      0.000000      0.008497
      0.00000      0.00000     13.70531         0.000000      0.000000      0.002430
 -----------------------------------------------------------------------------------
    total drift:                                0.000000      0.000000     -0.010190


--------------------------------------------------------------------------------------------------------



  FREE ENERGIE OF THE ION-ELECTRON SYSTEM (eV)
  ---------------------------------------------------
  free  energy   TOTEN  =      -124.17127357 eV

  energy  without entropy=     -124.15070852  energy(sigma->0) =     -124.16099104
 


--------------------------------------------------------------------------------------------------------


    POTLOK:  cpu time    0.4969: real time    0.4974


--------------------------------------------------------------------------------------------------------


 stress matrix after NEB project (eV)
      0.00000      0.00000      0.00000
      0.00000      0.00000      0.00000
      0.00000      0.00000      0.00000
  FORCES: max atom, RMS     0.008497    0.002893
  FORCE total and by dimension    0.012940    0.008497
  Stress total and by dimension    0.000000    0.000000


--------------------------------------------------------------------------------------------------------


  
 reached required accuracy - stopping structural energy minimisation
     LOOP+:  cpu time  243.1180: real time  243.8018
 vacuum level on the upper side and lower side of the slab         2.797         5.127
    4ORBIT:  cpu time    0.0000: real time    0.0000

 total amount of memory used by VASP on root node    44412. kBytes
========================================================================

   base      :      30000. kBytes
   nonlr-proj:       1253. kBytes
   fftplans  :       1479. kBytes
   grid      :       3891. kBytes
   one-center:        155. kBytes
   wavefun   :       7634. kBytes
 
  
  
 General timing and accounting informations for this job:
 ========================================================
  
                  Total CPU time used (sec):      247.437
                            User time (sec):      246.574
                          System time (sec):        0.864
                         Elapsed time (sec):      248.524
  
                   Maximum memory used (kb):       55300.
                   Average memory used (kb):           0.
  
                          Minor page faults:        10257
                          Major page faults:            7
                 Voluntary context switches:         1627
