<?xml version="1.0" encoding="ISO-8859-1"?>
<modeling>
 <generator>
  <i name="program" type="string">vasp </i>
  <i name="version" type="string">5.4.1  </i>
  <i name="subversion" type="string">24Jun15 (build Jan 06 2016 13:10:00) complex                          parallel </i>
  <i name="platform" type="string">IFC91_ompi </i>
  <i name="date" type="string">2016 03 08 </i>
  <i name="time" type="string">10:48:31 </i>
 </generator>
 <incar>
  <i type="string" name="PREC">normal</i>
  <i type="string" name="ALGO"> Fast</i>
  <i type="int" name="ISPIN">     2</i>
  <i type="int" name="ICHARG">     1</i>
  <i type="int" name="NELM">   100</i>
  <i type="int" name="IBRION">     2</i>
  <i name="EDIFF">      0.00010000</i>
  <i name="EDIFFG">     -0.01000000</i>
  <i type="int" name="NSW">    99</i>
  <i type="int" name="ISIF">     0</i>
  <i name="ENCUT">    300.00000000</i>
  <i type="string" name="LREAL"> Auto</i>
  <i type="int" name="ISMEAR">     0</i>
  <i name="SIGMA">      0.05000000</i>
  <i type="int" name="LMAXMIX">     4</i>
  <i type="logical" name="LWAVE"> F  </i>
  <i type="logical" name="LVTOT"> T  </i>
  <v type="int" name="KPOINT_BSE">    -1     0     0     0</v>
  <i type="int" name="NELM">   100</i>
  <i type="logical" name="LDAU"> T  </i>
  <v type="int" name="LDAUTYPE">     2</v>
  <v type="int" name="LDAUL">     0     2     0</v>
  <v name="LDAUU">      0.00000000      5.30000000      0.00000000</v>
  <v name="LDAUJ">      0.00000000      0.00000000      0.00000000</v>
  <i type="int" name="LDAUPRINT">     1</i>
  <i type="logical" name="LDIPOL"> T  </i>
  <i type="int" name="IDIPOL">     3</i>
 </incar>
 <kpoints>
  <generation param="Monkhorst-Pack">
   <v type="int" name="divisions">       4        4        1 </v>
   <v name="usershift">      0.00000000       0.00000000       0.00000000 </v>
   <v name="genvec1">      0.25000000       0.00000000       0.00000000 </v>
   <v name="genvec2">      0.00000000       0.25000000       0.00000000 </v>
   <v name="genvec3">      0.00000000       0.00000000       1.00000000 </v>
   <v name="shift">      0.50000000       0.50000000       0.00000000 </v>
  </generation>
  <varray name="kpointlist" >
   <v>       0.12500000       0.12500000       0.00000000 </v>
   <v>       0.37500000       0.12500000       0.00000000 </v>
   <v>       0.37500000       0.37500000       0.00000000 </v>
  </varray>
  <varray name="weights" >
   <v>       0.25000000 </v>
   <v>       0.50000000 </v>
   <v>       0.25000000 </v>
  </varray>
 </kpoints>
 <parameters>
  <separator name="general" >
   <i type="string" name="SYSTEM">unknown system</i>
   <i type="logical" name="LCOMPAT"> F  </i>
  </separator>
  <separator name="electronic" >
   <i type="string" name="PREC">normal</i>
   <i name="ENMAX">    300.00000000</i>
   <i name="ENAUG">    578.34200000</i>
   <i name="EDIFF">      0.00010000</i>
   <i type="int" name="IALGO">    68</i>
   <i type="int" name="IWAVPR">    11</i>
   <i type="int" name="NBANDS">   110</i>
   <i name="NELECT">    168.00000000</i>
   <i type="int" name="TURBO">     0</i>
   <i type="int" name="IRESTART">     0</i>
   <i type="int" name="NREBOOT">     0</i>
   <i type="int" name="NMIN">     0</i>
   <i name="EREF">      0.00000000</i>
   <separator name="electronic smearing" >
    <i type="int" name="ISMEAR">     0</i>
    <i name="SIGMA">      0.05000000</i>
    <i name="KSPACING">      0.50000000</i>
    <i type="logical" name="KGAMMA"> T  </i>
   </separator>
   <separator name="electronic projectors" >
    <i type="logical" name="LREAL"> T  </i>
    <v name="ROPT">     -0.00050000     -0.00050000     -0.00050000</v>
    <i type="int" name="LMAXPAW">  -100</i>
    <i type="int" name="LMAXMIX">     4</i>
    <i type="logical" name="NLSPLINE"> F  </i>
   </separator>
   <separator name="electronic startup" >
    <i type="int" name="ISTART">     0</i>
    <i type="int" name="ICHARG">     1</i>
    <i type="int" name="INIWAV">     1</i>
   </separator>
   <separator name="electronic spin" >
    <i type="int" name="ISPIN">     2</i>
    <i type="logical" name="LNONCOLLINEAR"> F  </i>
    <v name="MAGMOM">      1.00000000      1.00000000      1.00000000      1.00000000      1.00000000      1.00000000      1.00000000      1.00000000      1.00000000      1.00000000      1.00000000      1.00000000      1.00000000      1.00000000      1.00000000      1.00000000      1.00000000      1.00000000      1.00000000      1.00000000
</v>
    <i name="NUPDOWN">     -1.00000000</i>
    <i type="logical" name="LSORBIT"> F  </i>
    <v name="SAXIS">      0.00000000      0.00000000      1.00000000</v>
    <i type="logical" name="LSPIRAL"> F  </i>
    <v name="QSPIRAL">      0.00000000      0.00000000      0.00000000</v>
    <i type="logical" name="LZEROZ"> F  </i>
   </separator>
   <separator name="electronic exchange-correlation" >
    <i type="logical" name="LASPH"> F  </i>
    <i type="logical" name="LMETAGGA"> F  </i>
   </separator>
   <separator name="electronic convergence" >
    <i type="int" name="NELM">   100</i>
    <i type="int" name="NELMDL">    -5</i>
    <i type="int" name="NELMIN">     2</i>
    <i name="ENINI">    300.00000000</i>
    <separator name="electronic convergence detail" >
     <i type="logical" name="LDIAG"> T  </i>
     <i type="logical" name="LSUBROT"> F  </i>
     <i name="WEIMIN">      0.00100000</i>
     <i name="EBREAK">      0.00000023</i>
     <i name="DEPER">      0.30000000</i>
     <i type="int" name="NRMM">     4</i>
     <i name="TIME">      0.40000000</i>
    </separator>
   </separator>
   <separator name="electronic mixer" >
    <i name="AMIX">      0.40000000</i>
    <i name="BMIX">      1.00000000</i>
    <i name="AMIN">      0.10000000</i>
    <i name="AMIX_MAG">      1.60000000</i>
    <i name="BMIX_MAG">      1.00000000</i>
    <separator name="electronic mixer details" >
     <i type="int" name="IMIX">     4</i>
     <i type="logical" name="MIXFIRST"> F  </i>
     <i type="int" name="MAXMIX">   -45</i>
     <i name="WC">    100.00000000</i>
     <i type="int" name="INIMIX">     1</i>
     <i type="int" name="MIXPRE">     1</i>
     <i type="int" name="MREMOVE">     5</i>
    </separator>
   </separator>
   <separator name="electronic dipolcorrection" >
    <i type="logical" name="LDIPOL"> T  </i>
    <i type="logical" name="LMONO"> F  </i>
    <i type="int" name="IDIPOL">     3</i>
    <i name="EPSILON">      1.00000000</i>
    <v name="DIPOL">   -100.00000000   -100.00000000   -100.00000000</v>
    <i name="EFIELD">      0.00000000</i>
   </separator>
  </separator>
  <separator name="grids" >
   <i type="int" name="NGX">    16</i>
   <i type="int" name="NGY">    16</i>
   <i type="int" name="NGZ">   140</i>
   <i type="int" name="NGXF">    32</i>
   <i type="int" name="NGYF">    32</i>
   <i type="int" name="NGZF">   280</i>
   <i type="logical" name="ADDGRID"> F  </i>
  </separator>
  <separator name="ionic" >
   <i type="int" name="NSW">    99</i>
   <i type="int" name="IBRION">     2</i>
   <i type="int" name="ISIF">     0</i>
   <i name="PSTRESS">      0.00000000</i>
   <i name="EDIFFG">     -0.01000000</i>
   <i type="int" name="NFREE">     1</i>
   <i name="POTIM">      0.50000000</i>
   <i name="SMASS">     -3.00000000</i>
   <i name="SCALEE">      1.00000000</i>
  </separator>
  <separator name="ionic md" >
   <i name="TEBEG">      0.00010000</i>
   <i name="TEEND">      0.00010000</i>
   <i type="int" name="NBLOCK">     1</i>
   <i type="int" name="KBLOCK">    99</i>
   <i type="int" name="NPACO">   256</i>
   <i name="APACO">     16.00000000</i>
  </separator>
  <separator name="symmetry" >
   <i type="int" name="ISYM">     2</i>
   <i name="SYMPREC">      0.00001000</i>
  </separator>
  <separator name="dos" >
   <i type="logical" name="LORBIT"> F  </i>
   <v name="RWIGS">     -1.00000000     -1.00000000     -1.00000000</v>
   <i type="int" name="NEDOS">   301</i>
   <i name="EMIN">     10.00000000</i>
   <i name="EMAX">    -10.00000000</i>
   <i name="EFERMI">      0.00000000</i>
  </separator>
  <separator name="writing" >
   <i type="int" name="NWRITE">     2</i>
   <i type="logical" name="LWAVE"> F  </i>
   <i type="logical" name="LCHARG"> T  </i>
   <i type="logical" name="LPARD"> F  </i>
   <i type="logical" name="LVTOT"> T  </i>
   <i type="logical" name="LVHAR"> F  </i>
   <i type="logical" name="LELF"> F  </i>
   <i type="logical" name="LOPTICS"> F  </i>
   <v name="STM">      0.00000000      0.00000000      0.00000000      0.00000000      0.00000000      0.00000000      0.00000000</v>
  </separator>
  <separator name="performance" >
   <i type="int" name="NPAR">     2</i>
   <i type="int" name="NSIM">     4</i>
   <i type="int" name="NBLK">    -1</i>
   <i type="logical" name="LPLANE"> T  </i>
   <i type="logical" name="LSCALAPACK"> T  </i>
   <i type="logical" name="LSCAAWARE"> F  </i>
   <i type="logical" name="LSCALU"> F  </i>
   <i type="logical" name="LASYNC"> F  </i>
   <i type="logical" name="LORBITALREAL"> F  </i>
  </separator>
  <separator name="miscellaneous" >
   <i type="int" name="IDIOT">     3</i>
   <i type="logical" name="LMUSIC"> F  </i>
   <v name="POMASS">     87.62000000     55.84700000     16.00000000</v>
   <v name="DARWINR">      0.00000000      0.00000000      0.00000000</v>
   <v name="DARWINV">      1.00000000      1.00000000      1.00000000</v>
   <i type="logical" name="LCORR"> T  </i>
  </separator>
  <i type="logical" name="GGA_COMPAT"> T  </i>
  <i type="logical" name="LBERRY"> F  </i>
  <i type="int" name="ICORELEVEL">     0</i>
  <i type="logical" name="LDAU"> T  </i>
  <v type="int" name="LDAUTYPE">     2</v>
  <v type="int" name="LDAUL">     0</v>
  <v name="LDAUU">      0.00000000</v>
  <v name="LDAUJ">      0.00000000</v>
  <i type="int" name="LDAUPRINT">     1</i>
  <i type="int" name="I_CONSTRAINED_M">     0</i>
  <separator name="electronic exchange-correlation" >
   <i type="string" name="GGA">--</i>
   <i type="int" name="VOSKOWN">     0</i>
   <i type="logical" name="LHFCALC"> F  </i>
   <i type="string" name="PRECFOCK"></i>
   <i type="logical" name="LSYMGRAD"> F  </i>
   <i type="logical" name="LHFONE"> F  </i>
   <i type="logical" name="LRHFCALC"> F  </i>
   <i type="logical" name="LTHOMAS"> F  </i>
   <i type="logical" name="LMODELHF"> F  </i>
   <i name="ENCUT4O">     -1.00000000</i>
   <i type="int" name="EXXOEP">     0</i>
   <i type="int" name="FOURORBIT">     0</i>
   <i name="AEXX">      0.00000000</i>
   <i name="HFALPHA">      0.00000000</i>
   <i name="MCALPHA">      0.00000000</i>
   <i name="ALDAX">      1.00000000</i>
   <i name="AGGAX">      1.00000000</i>
   <i name="ALDAC">      1.00000000</i>
   <i name="AGGAC">      1.00000000</i>
   <i type="int" name="NKREDX">     1</i>
   <i type="int" name="NKREDY">     1</i>
   <i type="int" name="NKREDZ">     1</i>
   <i type="logical" name="SHIFTRED"> F  </i>
   <i type="logical" name="ODDONLY"> F  </i>
   <i type="logical" name="EVENONLY"> F  </i>
   <i type="int" name="LMAXFOCK">     0</i>
   <i type="int" name="NMAXFOCKAE">     0</i>
   <i type="logical" name="LFOCKAEDFT"> F  </i>
   <i name="HFSCREEN">      0.00000000</i>
   <i name="HFSCREENC">      0.00000000</i>
   <i type="int" name="NBANDSGWLOW">     0</i>
  </separator>
  <separator name="vdW DFT" >
   <i type="logical" name="LUSE_VDW"> F  </i>
   <i name="Zab_VDW">     -0.84910000</i>
   <i name="PARAM1">      0.12340000</i>
   <i name="PARAM2">      1.00000000</i>
   <i name="PARAM3">      0.00000000</i>
  </separator>
  <separator name="model GW" >
   <i type="int" name="MODEL_GW">     0</i>
   <i name="MODEL_EPS0">     13.84456585</i>
   <i name="MODEL_ALPHA">      1.00000000</i>
  </separator>
  <separator name="linear response parameters" >
   <i type="logical" name="LEPSILON"> F  </i>
   <i type="logical" name="LRPA"> F  </i>
   <i type="logical" name="LNABLA"> F  </i>
   <i type="logical" name="LVEL"> F  </i>
   <i type="int" name="KINTER">     0</i>
   <i name="CSHIFT">      0.10000000</i>
   <i name="OMEGAMAX">     -1.00000000</i>
   <i name="DEG_THRESHOLD">      0.00200000</i>
  </separator>
  <separator name="orbital magnetization" >
   <i type="logical" name="NUCIND"> F  </i>
   <v name="MAGPOS">      0.00000000      0.00000000      0.00000000</v>
   <i type="logical" name="LNICSALL"> T  </i>
   <i type="logical" name="ORBITALMAG"> F  </i>
   <i type="logical" name="LMAGBLOCH"> F  </i>
   <i type="logical" name="LCHIMAG"> F  </i>
   <i type="logical" name="LGAUGE"> T  </i>
   <i type="int" name="MAGATOM">     0</i>
   <v name="MAGDIPOL">      0.00000000      0.00000000      0.00000000</v>
   <v name="AVECCONST">      0.00000000      0.00000000      0.00000000</v>
  </separator>
  <separator name="response functions" >
   <i type="logical" name="LADDER"> F  </i>
   <i type="logical" name="LFXC"> F  </i>
   <i type="logical" name="LHARTREE"> T  </i>
   <i type="int" name="IBSE">     0</i>
   <v type="int" name="KPOINT">    -1     0     0     0</v>
   <i type="logical" name="LTCTE"> F  </i>
   <i type="logical" name="LTETE"> F  </i>
   <i type="logical" name="LTRIPLET"> F  </i>
   <i type="logical" name="LFXCEPS"> F  </i>
   <i type="logical" name="LFXHEG"> F  </i>
   <i type="int" name="NATURALO">     0</i>
   <i type="logical" name="L2ORDER"> F  </i>
   <i type="logical" name="LUSEW"> F  </i>
   <i name="ENCUTGW">     -2.00000000</i>
   <i name="ENCUTGWSOFT">     -2.00000000</i>
   <i name="ENCUTLF">     -1.00000000</i>
   <i type="int" name="LMAXMP2">    -1</i>
   <i name="SCISSOR">      0.00000000</i>
   <i type="int" name="NOMEGA">     0</i>
   <i type="int" name="NOMEGAR">     0</i>
   <i type="int" name="NBANDSGW">    -1</i>
   <i type="int" name="NBANDSO">    -1</i>
   <i type="int" name="NBANDSV">    -1</i>
   <i type="int" name="NELM">   100</i>
   <i type="int" name="NELMHF">     1</i>
   <i type="int" name="DIM">     3</i>
   <i type="int" name="ANTIRES">     0</i>
   <i name="OMEGAMAX">    -30.00000000</i>
   <i name="OMEGAMIN">    -30.00000000</i>
   <i name="OMEGATL">   -200.00000000</i>
   <i type="int" name="OMEGAGRID">     0</i>
   <i name="CSHIFT">     -0.10000000</i>
   <i type="logical" name="SELFENERGY"> F  </i>
   <i type="logical" name="LSPECTRAL"> F  </i>
   <i type="logical" name="LSPECTRALGW"> F  </i>
   <i type="logical" name="LSINGLES"> F  </i>
   <i type="logical" name="LFERMIGW"> F  </i>
   <i type="logical" name="ODDONLYGW"> F  </i>
   <i type="logical" name="EVENONLYGW"> F  </i>
   <i type="int" name="NKREDLFX">     1</i>
   <i type="int" name="NKREDLFY">     1</i>
   <i type="int" name="NKREDLFZ">     1</i>
   <i type="int" name="MAXMEM">  1800</i>
   <i type="int" name="TELESCOPE">     0</i>
   <i type="int" name="TAUPAR">     1</i>
   <i type="int" name="OMEGAPAR">    -1</i>
   <i name="LAMBDA">      1.00000000</i>
  </separator>
  <separator name="External order field" >
   <i name="OFIELD_KAPPA">      0.00000000</i>
   <v name="OFIELD_K">      0.00000000      0.00000000      0.00000000</v>
   <i name="OFIELD_Q6_NEAR">      0.00000000</i>
   <i name="OFIELD_Q6_FAR">      0.00000000</i>
   <i name="OFIELD_A">      0.00000000</i>
  </separator>
  <separator name="solvation model" >
   <i type="logical" name="LSOL"> F  </i>
  </separator>
 </parameters>
 <atominfo>
  <atoms>      20 </atoms>
  <types>       3 </types>
  <array name="atoms" >
   <dimension dim="1">ion</dimension>
   <field type="string">element</field>
   <field type="int">atomtype</field>
   <set>
    <rc><c>Sr</c><c>   1</c></rc>
    <rc><c>Sr</c><c>   1</c></rc>
    <rc><c>Sr</c><c>   1</c></rc>
    <rc><c>Sr</c><c>   1</c></rc>
    <rc><c>Fe</c><c>   2</c></rc>
    <rc><c>Fe</c><c>   2</c></rc>
    <rc><c>Fe</c><c>   2</c></rc>
    <rc><c>Fe</c><c>   2</c></rc>
    <rc><c>O </c><c>   3</c></rc>
    <rc><c>O </c><c>   3</c></rc>
    <rc><c>O </c><c>   3</c></rc>
    <rc><c>O </c><c>   3</c></rc>
    <rc><c>O </c><c>   3</c></rc>
    <rc><c>O </c><c>   3</c></rc>
    <rc><c>O </c><c>   3</c></rc>
    <rc><c>O </c><c>   3</c></rc>
    <rc><c>O </c><c>   3</c></rc>
    <rc><c>O </c><c>   3</c></rc>
    <rc><c>O </c><c>   3</c></rc>
    <rc><c>O </c><c>   3</c></rc>
   </set>
  </array>
  <array name="atomtypes" >
   <dimension dim="1">type</dimension>
   <field type="int">atomspertype</field>
   <field type="string">element</field>
   <field>mass</field>
   <field>valence</field>
   <field type="string">pseudopotential</field>
   <set>
    <rc><c>   4</c><c>Sr</c><c>     87.62000000</c><c>     10.00000000</c><c>  PAW Sr                                </c></rc>
    <rc><c>   4</c><c>Fe</c><c>     55.84700000</c><c>     14.00000000</c><c>  PAW Fe                                </c></rc>
    <rc><c>  12</c><c>O </c><c>     16.00000000</c><c>      6.00000000</c><c>  PAW O_s                               </c></rc>
   </set>
  </array>
 </atominfo>
 <structure name="initialpos" >
  <crystal>
   <varray name="basis" >
    <v>       3.88680817       0.00000000       0.00000000 </v>
    <v>       0.00000000       3.88680817       0.00000000 </v>
    <v>       0.00000000       0.00000000      30.54723268 </v>
   </varray>
   <i name="volume">    461.48552838 </i>
   <varray name="rec_basis" >
    <v>       0.25728051       0.00000000       0.00000000 </v>
    <v>       0.00000000       0.25728051       0.00000000 </v>
    <v>       0.00000000       0.00000000       0.03273619 </v>
   </varray>
  </crystal>
  <varray name="positions" >
   <v>       0.50000000       0.50000000       0.06361964 </v>
   <v>       0.50000000       0.50000000       0.19085893 </v>
   <v>       0.50000000       0.50000000       0.31852341 </v>
   <v>       0.50000000       0.50000000       0.44076390 </v>
   <v>       0.00000000       0.00000000       0.00000000 </v>
   <v>       0.00000000       0.00000000       0.12723929 </v>
   <v>       0.00000000       0.00000000       0.25556037 </v>
   <v>       0.00000000       0.00000000       0.38494139 </v>
   <v>       0.50000000       0.00000000       0.00000000 </v>
   <v>       0.50000000       0.00000000       0.12723929 </v>
   <v>       0.50000000       0.00000000       0.25524104 </v>
   <v>       0.50000000       0.00000000       0.38439581 </v>
   <v>       0.00000000       0.50000000       0.00000000 </v>
   <v>       0.00000000       0.50000000       0.12723929 </v>
   <v>       0.00000000       0.50000000       0.25524104 </v>
   <v>       0.00000000       0.50000000       0.38439581 </v>
   <v>       0.00000000       0.00000000       0.06361964 </v>
   <v>       0.00000000       0.00000000       0.19085893 </v>
   <v>       0.00000000       0.00000000       0.32020575 </v>
   <v>       0.00000000       0.00000000       0.44865975 </v>
  </varray>
  <varray name="selective"  type="logical" >
   <v type="logical" >  F  F  F </v>
   <v type="logical" >  F  F  F </v>
   <v type="logical" >  T  T  T </v>
   <v type="logical" >  T  T  T </v>
   <v type="logical" >  F  F  F </v>
   <v type="logical" >  F  F  F </v>
   <v type="logical" >  T  T  T </v>
   <v type="logical" >  T  T  T </v>
   <v type="logical" >  F  F  F </v>
   <v type="logical" >  F  F  F </v>
   <v type="logical" >  T  T  T </v>
   <v type="logical" >  T  T  T </v>
   <v type="logical" >  F  F  F </v>
   <v type="logical" >  F  F  F </v>
   <v type="logical" >  T  T  T </v>
   <v type="logical" >  T  T  T </v>
   <v type="logical" >  F  F  F </v>
   <v type="logical" >  F  F  F </v>
   <v type="logical" >  T  T  T </v>
   <v type="logical" >  T  T  T </v>
  </varray>
  <nose>
   <v>      -3.00000000       0.00000000       0.00010000       0.00010000 </v>
  </nose>
 </structure>
 <calculation>
  <scstep>
   <time name="dav">    4.88    4.89</time>
   <time name="total">    5.38    5.39</time>
   <dipole>
    <v name="dipole">      0.00000000       0.00000000      -0.00011615 </v>
    <i name="Tr[quadrupol]">   -488.16637638 </i>
    <i name="Echarged">      0.00000000 </i>
    <i name="Edipol_quadrupol">      0.00000000 </i>
    <i name="Eion">      0.00000000 </i>
   </dipole>
   <energy>
    <i name="alphaZ">    595.92595888 </i>
    <i name="ewald">  92138.10995991 </i>
    <i name="hartreedc">-108742.43444891 </i>
    <i name="XCdc">    759.19912211 </i>
    <i name="pawpsdc">  12967.27660945 </i>
    <i name="pawaedc"> -13271.26785113 </i>
    <i name="eentropy">     -0.01703980 </i>
    <i name="bandstr">  -1405.89178246 </i>
    <i name="atom">  18407.79351682 </i>
    <i name="e_fr_energy">   1448.69404484 </i>
    <i name="e_wo_entrp">   1448.71108465 </i>
    <i name="e_0_energy">   1448.70256475 </i>
   </energy>
  </scstep>
  <scstep>
   <time name="dav">    4.58    4.59</time>
   <time name="total">    4.58    4.59</time>
   <dipole>
    <v name="dipole">      0.00000000       0.00000000      -0.00011615 </v>
    <i name="Tr[quadrupol]">   -488.16637638 </i>
    <i name="Echarged">      0.00000000 </i>
    <i name="Edipol_quadrupol">      0.00000000 </i>
    <i name="Eion">      0.00000000 </i>
   </dipole>
   <energy>
    <i name="e_fr_energy">    -22.30545113 </i>
    <i name="e_wo_entrp">    -22.29004253 </i>
    <i name="e_0_energy">    -22.29774683 </i>
   </energy>
  </scstep>
  <scstep>
   <time name="dav">    5.05    5.06</time>
   <time name="total">    5.06    5.07</time>
   <dipole>
    <v name="dipole">      0.00000000       0.00000000      -0.00011615 </v>
    <i name="Tr[quadrupol]">   -488.16637638 </i>
    <i name="Echarged">      0.00000000 </i>
    <i name="Edipol_quadrupol">      0.00000000 </i>
    <i name="Eion">      0.00000000 </i>
   </dipole>
   <energy>
    <i name="e_fr_energy">   -144.61935074 </i>
    <i name="e_wo_entrp">   -144.61319412 </i>
    <i name="e_0_energy">   -144.61627243 </i>
   </energy>
  </scstep>
  <scstep>
   <time name="dav">    6.24    6.25</time>
   <time name="total">    6.25    6.25</time>
   <dipole>
    <v name="dipole">      0.00000000       0.00000000      -0.00011615 </v>
    <i name="Tr[quadrupol]">   -488.16637638 </i>
    <i name="Echarged">      0.00000000 </i>
    <i name="Edipol_quadrupol">      0.00000000 </i>
    <i name="Eion">      0.00000000 </i>
   </dipole>
   <energy>
    <i name="e_fr_energy">   -150.14573041 </i>
    <i name="e_wo_entrp">   -150.13805280 </i>
    <i name="e_0_energy">   -150.14189160 </i>
   </energy>
  </scstep>
  <scstep>
   <time name="dav">    6.96    6.97</time>
   <time name="total">    7.13    7.14</time>
   <dipole>
    <v name="dipole">      0.00000000       0.00000000      -0.00011615 </v>
    <i name="Tr[quadrupol]">   -488.16637638 </i>
    <i name="Echarged">      0.00000000 </i>
    <i name="Edipol_quadrupol">      0.00000000 </i>
    <i name="Eion">      0.00000000 </i>
   </dipole>
   <energy>
    <i name="e_fr_energy">   -150.62265323 </i>
    <i name="e_wo_entrp">   -150.61494932 </i>
    <i name="e_0_energy">   -150.61880127 </i>
   </energy>
  </scstep>
  <scstep>
   <time name="diag">    0.61    0.62</time>
   <time name="diis">    2.30    2.31</time>
   <time name="orth">    0.14    0.15</time>
   <time name="total">    3.73    3.74</time>
   <dipole>
    <v name="dipole">      0.00000000       0.00000000       1.12102835 </v>
    <i name="Tr[quadrupol]">   -492.43155862 </i>
    <i name="Echarged">      0.00000000 </i>
    <i name="Edipol_quadrupol">      0.00000000 </i>
    <i name="Eion">      0.00000000 </i>
   </dipole>
   <energy>
    <i name="e_fr_energy">   -272.11847231 </i>
    <i name="e_wo_entrp">   -272.11096736 </i>
    <i name="e_0_energy">   -272.11471984 </i>
   </energy>
  </scstep>
  <scstep>
   <time name="diag">    0.61    0.61</time>
   <time name="diis">    2.57    2.58</time>
   <time name="orth">    0.15    0.15</time>
   <time name="total">    3.98    3.99</time>
   <dipole>
    <v name="dipole">      0.00000000       0.00000000      -3.24423258 </v>
    <i name="Tr[quadrupol]">   -496.54640392 </i>
    <i name="Echarged">      0.00000000 </i>
    <i name="Edipol_quadrupol">      0.00000000 </i>
    <i name="Eion">      0.00000000 </i>
   </dipole>
   <energy>
    <i name="e_fr_energy">   -739.45554494 </i>
    <i name="e_wo_entrp">   -739.44189527 </i>
    <i name="e_0_energy">   -739.44872011 </i>
   </energy>
  </scstep>
  <scstep>
   <time name="diag">    0.61    0.61</time>
   <time name="diis">    2.10    2.10</time>
   <time name="orth">    0.15    0.15</time>
   <time name="total">    3.51    3.51</time>
   <dipole>
    <v name="dipole">      0.00000000       0.00000000      -0.17655174 </v>
    <i name="Tr[quadrupol]">   -499.41260746 </i>
    <i name="Echarged">      0.00000000 </i>
    <i name="Edipol_quadrupol">      0.00000000 </i>
    <i name="Eion">      0.00000000 </i>
   </dipole>
   <energy>
    <i name="e_fr_energy">   -184.04430516 </i>
    <i name="e_wo_entrp">   -184.03543797 </i>
    <i name="e_0_energy">   -184.03987157 </i>
   </energy>
  </scstep>
  <scstep>
   <time name="diag">    0.61    0.62</time>
   <time name="diis">    2.14    2.14</time>
   <time name="orth">    0.14    0.15</time>
   <time name="total">    3.57    3.58</time>
   <dipole>
    <v name="dipole">      0.00000000       0.00000000      -0.17006428 </v>
    <i name="Tr[quadrupol]">   -494.11730372 </i>
    <i name="Echarged">      0.00000000 </i>
    <i name="Edipol_quadrupol">      0.00000000 </i>
    <i name="Eion">      0.00000000 </i>
   </dipole>
   <energy>
    <i name="e_fr_energy">   -122.86133106 </i>
    <i name="e_wo_entrp">   -122.85133382 </i>
    <i name="e_0_energy">   -122.85633244 </i>
   </energy>
  </scstep>
  <scstep>
   <time name="diag">    0.61    0.62</time>
   <time name="diis">    2.17    2.17</time>
   <time name="orth">    0.15    0.15</time>
   <time name="total">    3.59    3.59</time>
   <dipole>
    <v name="dipole">      0.00000000       0.00000000      -0.12293869 </v>
    <i name="Tr[quadrupol]">   -494.13323576 </i>
    <i name="Echarged">      0.00000000 </i>
    <i name="Edipol_quadrupol">      0.00000000 </i>
    <i name="Eion">      0.00000000 </i>
   </dipole>
   <energy>
    <i name="e_fr_energy">   -121.02325073 </i>
    <i name="e_wo_entrp">   -121.00307395 </i>
    <i name="e_0_energy">   -121.01316234 </i>
   </energy>
  </scstep>
  <scstep>
   <time name="diag">    0.61    0.62</time>
   <time name="diis">    2.16    2.16</time>
   <time name="orth">    0.15    0.15</time>
   <time name="total">    3.57    3.58</time>
   <dipole>
    <v name="dipole">      0.00000000       0.00000000      -0.08123806 </v>
    <i name="Tr[quadrupol]">   -494.28250686 </i>
    <i name="Echarged">      0.00000000 </i>
    <i name="Edipol_quadrupol">      0.00000000 </i>
    <i name="Eion">      0.00000000 </i>
   </dipole>
   <energy>
    <i name="e_fr_energy">   -123.92908053 </i>
    <i name="e_wo_entrp">   -123.92724908 </i>
    <i name="e_0_energy">   -123.92816480 </i>
   </energy>
  </scstep>
  <scstep>
   <time name="diag">    0.61    0.61</time>
   <time name="diis">    2.10    2.10</time>
   <time name="orth">    0.14    0.14</time>
   <time name="total">    3.51    3.52</time>
   <dipole>
    <v name="dipole">      0.00000000       0.00000000      -0.11369831 </v>
    <i name="Tr[quadrupol]">   -494.74935584 </i>
    <i name="Echarged">      0.00000000 </i>
    <i name="Edipol_quadrupol">      0.00000000 </i>
    <i name="Eion">      0.00000000 </i>
   </dipole>
   <energy>
    <i name="e_fr_energy">   -124.59005201 </i>
    <i name="e_wo_entrp">   -124.57881294 </i>
    <i name="e_0_energy">   -124.58443248 </i>
   </energy>
  </scstep>
  <scstep>
   <time name="diag">    0.61    0.62</time>
   <time name="diis">    2.15    2.15</time>
   <time name="orth">    0.14    0.15</time>
   <time name="total">    3.55    3.57</time>
   <dipole>
    <v name="dipole">      0.00000000       0.00000000      -0.04549712 </v>
    <i name="Tr[quadrupol]">   -494.19647737 </i>
    <i name="Echarged">      0.00000000 </i>
    <i name="Edipol_quadrupol">      0.00000000 </i>
    <i name="Eion">      0.00000000 </i>
   </dipole>
   <energy>
    <i name="e_fr_energy">   -122.91821970 </i>
    <i name="e_wo_entrp">   -122.90080000 </i>
    <i name="e_0_energy">   -122.90950985 </i>
   </energy>
  </scstep>
  <scstep>
   <time name="diag">    0.61    0.61</time>
   <time name="diis">    2.16    2.18</time>
   <time name="orth">    0.15    0.15</time>
   <time name="total">    3.57    3.59</time>
   <dipole>
    <v name="dipole">      0.00000000       0.00000000      -0.02159266 </v>
    <i name="Tr[quadrupol]">   -494.60438945 </i>
    <i name="Echarged">      0.00000000 </i>
    <i name="Edipol_quadrupol">      0.00000000 </i>
    <i name="Eion">      0.00000000 </i>
   </dipole>
   <energy>
    <i name="e_fr_energy">   -123.34761750 </i>
    <i name="e_wo_entrp">   -123.33359379 </i>
    <i name="e_0_energy">   -123.34060564 </i>
   </energy>
  </scstep>
  <scstep>
   <time name="diag">    0.61    0.62</time>
   <time name="diis">    2.39    2.39</time>
   <time name="orth">    0.15    0.15</time>
   <time name="total">    3.80    3.81</time>
   <dipole>
    <v name="dipole">      0.00000000       0.00000000      -0.06520052 </v>
    <i name="Tr[quadrupol]">   -494.83078685 </i>
    <i name="Echarged">      0.00000000 </i>
    <i name="Edipol_quadrupol">      0.00000000 </i>
    <i name="Eion">      0.00000000 </i>
   </dipole>
   <energy>
    <i name="e_fr_energy">   -123.69635787 </i>
    <i name="e_wo_entrp">   -123.69076558 </i>
    <i name="e_0_energy">   -123.69356173 </i>
   </energy>
  </scstep>
  <scstep>
   <time name="diag">    0.61    0.61</time>
   <time name="diis">    2.13    2.13</time>
   <time name="orth">    0.14    0.15</time>
   <time name="total">    3.54    3.55</time>
   <dipole>
    <v name="dipole">      0.00000000       0.00000000      -0.04209125 </v>
    <i name="Tr[quadrupol]">   -495.95005456 </i>
    <i name="Echarged">      0.00000000 </i>
    <i name="Edipol_quadrupol">      0.00000000 </i>
    <i name="Eion">      0.00000000 </i>
   </dipole>
   <energy>
    <i name="e_fr_energy">   -124.14887374 </i>
    <i name="e_wo_entrp">   -124.13634879 </i>
    <i name="e_0_energy">   -124.14261127 </i>
   </energy>
  </scstep>
  <scstep>
   <time name="diag">    0.61    0.61</time>
   <time name="diis">    2.21    2.22</time>
   <time name="orth">    0.15    0.15</time>
   <time name="total">    3.62    3.62</time>
   <dipole>
    <v name="dipole">      0.00000000       0.00000000      -0.04284693 </v>
    <i name="Tr[quadrupol]">   -496.17221202 </i>
    <i name="Echarged">      0.00000000 </i>
    <i name="Edipol_quadrupol">      0.00000000 </i>
    <i name="Eion">      0.00000000 </i>
   </dipole>
   <energy>
    <i name="e_fr_energy">   -123.80838018 </i>
    <i name="e_wo_entrp">   -123.79834531 </i>
    <i name="e_0_energy">   -123.80336275 </i>
   </energy>
  </scstep>
  <scstep>
   <time name="diag">    0.61    0.61</time>
   <time name="diis">    2.34    2.34</time>
   <time name="orth">    0.14    0.14</time>
   <time name="total">    3.74    3.75</time>
   <dipole>
    <v name="dipole">      0.00000000       0.00000000      -0.03675430 </v>
    <i name="Tr[quadrupol]">   -496.18646777 </i>
    <i name="Echarged">      0.00000000 </i>
    <i name="Edipol_quadrupol">      0.00000000 </i>
    <i name="Eion">      0.00000000 </i>
   </dipole>
   <energy>
    <i name="e_fr_energy">   -123.68577676 </i>
    <i name="e_wo_entrp">   -123.67563203 </i>
    <i name="e_0_energy">   -123.68070440 </i>
   </energy>
  </scstep>
  <scstep>
   <time name="diag">    0.61    0.61</time>
   <time name="diis">    2.19    2.19</time>
   <time name="orth">    0.15    0.15</time>
   <time name="total">    3.60    3.60</time>
   <dipole>
    <v name="dipole">      0.00000000       0.00000000      -0.05170909 </v>
    <i name="Tr[quadrupol]">   -496.60749939 </i>
    <i name="Echarged">      0.00000000 </i>
    <i name="Edipol_quadrupol">      0.00000000 </i>
    <i name="Eion">      0.00000000 </i>
   </dipole>
   <energy>
    <i name="e_fr_energy">   -123.59001319 </i>
    <i name="e_wo_entrp">   -123.57942280 </i>
    <i name="e_0_energy">   -123.58471800 </i>
   </energy>
  </scstep>
  <scstep>
   <time name="diag">    0.61    0.61</time>
   <time name="diis">    2.18    2.18</time>
   <time name="orth">    0.14    0.14</time>
   <time name="total">    3.58    3.59</time>
   <dipole>
    <v name="dipole">      0.00000000       0.00000000      -0.06602244 </v>
    <i name="Tr[quadrupol]">   -497.10104566 </i>
    <i name="Echarged">      0.00000000 </i>
    <i name="Edipol_quadrupol">      0.00000000 </i>
    <i name="Eion">      0.00000000 </i>
   </dipole>
   <energy>
    <i name="e_fr_energy">   -123.54271912 </i>
    <i name="e_wo_entrp">   -123.53307195 </i>
    <i name="e_0_energy">   -123.53789553 </i>
   </energy>
  </scstep>
  <scstep>
   <time name="diag">    0.61    0.61</time>
   <time name="diis">    2.24    2.24</time>
   <time name="orth">    0.15    0.15</time>
   <time name="total">    3.64    3.65</time>
   <dipole>
    <v name="dipole">      0.00000000       0.00000000      -0.10220029 </v>
    <i name="Tr[quadrupol]">   -497.56934423 </i>
    <i name="Echarged">      0.00000000 </i>
    <i name="Edipol_quadrupol">      0.00000000 </i>
    <i name="Eion">      0.00000000 </i>
   </dipole>
   <energy>
    <i name="e_fr_energy">   -123.59650971 </i>
    <i name="e_wo_entrp">   -123.58010737 </i>
    <i name="e_0_energy">   -123.58830854 </i>
   </energy>
  </scstep>
  <scstep>
   <time name="diag">    0.61    0.62</time>
   <time name="diis">    2.12    2.14</time>
   <time name="orth">    0.15    0.15</time>
   <time name="total">    3.53    3.55</time>
   <dipole>
    <v name="dipole">      0.00000000       0.00000000      -0.12058877 </v>
    <i name="Tr[quadrupol]">   -498.10247581 </i>
    <i name="Echarged">      0.00000000 </i>
    <i name="Edipol_quadrupol">      0.00000000 </i>
    <i name="Eion">      0.00000000 </i>
   </dipole>
   <energy>
    <i name="e_fr_energy">   -123.69626943 </i>
    <i name="e_wo_entrp">   -123.68011748 </i>
    <i name="e_0_energy">   -123.68819345 </i>
   </energy>
  </scstep>
  <scstep>
   <time name="diag">    0.61    0.61</time>
   <time name="diis">    2.15    2.16</time>
   <time name="orth">    0.14    0.15</time>
   <time name="total">    3.56    3.58</time>
   <dipole>
    <v name="dipole">      0.00000000       0.00000000      -0.21313310 </v>
    <i name="Tr[quadrupol]">   -498.21795464 </i>
    <i name="Echarged">      0.00000000 </i>
    <i name="Edipol_quadrupol">      0.00000000 </i>
    <i name="Eion">      0.00000000 </i>
   </dipole>
   <energy>
    <i name="e_fr_energy">   -123.97039963 </i>
    <i name="e_wo_entrp">   -123.95482696 </i>
    <i name="e_0_energy">   -123.96261329 </i>
   </energy>
  </scstep>
  <scstep>
   <time name="diag">    0.62    0.62</time>
   <time name="diis">    2.17    2.17</time>
   <time name="orth">    0.14    0.15</time>
   <time name="total">    3.58    3.59</time>
   <dipole>
    <v name="dipole">      0.00000000       0.00000000      -0.17560538 </v>
    <i name="Tr[quadrupol]">   -498.43076840 </i>
    <i name="Echarged">      0.00000000 </i>
    <i name="Edipol_quadrupol">      0.00000000 </i>
    <i name="Eion">      0.00000000 </i>
   </dipole>
   <energy>
    <i name="e_fr_energy">   -123.87568503 </i>
    <i name="e_wo_entrp">   -123.85956293 </i>
    <i name="e_0_energy">   -123.86762398 </i>
   </energy>
  </scstep>
  <scstep>
   <time name="diag">    0.61    0.61</time>
   <time name="diis">    2.05    2.06</time>
   <time name="orth">    0.14    0.15</time>
   <time name="total">    3.45    3.48</time>
   <dipole>
    <v name="dipole">      0.00000000       0.00000000      -0.16280171 </v>
    <i name="Tr[quadrupol]">   -498.55095145 </i>
    <i name="Echarged">      0.00000000 </i>
    <i name="Edipol_quadrupol">      0.00000000 </i>
    <i name="Eion">      0.00000000 </i>
   </dipole>
   <energy>
    <i name="e_fr_energy">   -123.86847071 </i>
    <i name="e_wo_entrp">   -123.85075317 </i>
    <i name="e_0_energy">   -123.85961194 </i>
   </energy>
  </scstep>
  <scstep>
   <time name="diag">    0.61    0.61</time>
   <time name="diis">    2.09    2.09</time>
   <time name="orth">    0.15    0.15</time>
   <time name="total">    3.51    3.52</time>
   <dipole>
    <v name="dipole">      0.00000000       0.00000000      -0.24191683 </v>
    <i name="Tr[quadrupol]">   -498.51428898 </i>
    <i name="Echarged">      0.00000000 </i>
    <i name="Edipol_quadrupol">      0.00000000 </i>
    <i name="Eion">      0.00000000 </i>
   </dipole>
   <energy>
    <i name="e_fr_energy">   -124.07118822 </i>
    <i name="e_wo_entrp">   -124.05613124 </i>
    <i name="e_0_energy">   -124.06365973 </i>
   </energy>
  </scstep>
  <scstep>
   <time name="diag">    0.61    0.62</time>
   <time name="diis">    2.07    2.07</time>
   <time name="orth">    0.14    0.15</time>
   <time name="total">    3.49    3.49</time>
   <dipole>
    <v name="dipole">      0.00000000       0.00000000      -0.26660560 </v>
    <i name="Tr[quadrupol]">   -498.64760715 </i>
    <i name="Echarged">      0.00000000 </i>
    <i name="Edipol_quadrupol">      0.00000000 </i>
    <i name="Eion">      0.00000000 </i>
   </dipole>
   <energy>
    <i name="e_fr_energy">   -124.18288506 </i>
    <i name="e_wo_entrp">   -124.16768488 </i>
    <i name="e_0_energy">   -124.17528497 </i>
   </energy>
  </scstep>
  <scstep>
   <time name="diag">    0.61    0.61</time>
   <time name="diis">    2.05    2.05</time>
   <time name="orth">    0.14    0.15</time>
   <time name="total">    3.46    3.47</time>
   <dipole>
    <v name="dipole">      0.00000000       0.00000000      -0.27035004 </v>
    <i name="Tr[quadrupol]">   -498.59216648 </i>
    <i name="Echarged">      0.00000000 </i>
    <i name="Edipol_quadrupol">      0.00000000 </i>
    <i name="Eion">      0.00000000 </i>
   </dipole>
   <energy>
    <i name="e_fr_energy">   -124.22865401 </i>
    <i name="e_wo_entrp">   -124.21592454 </i>
    <i name="e_0_energy">   -124.22228928 </i>
   </energy>
  </scstep>
  <scstep>
   <time name="diag">    0.61    0.61</time>
   <time name="diis">    2.00    2.00</time>
   <time name="orth">    0.14    0.15</time>
   <time name="total">    3.41    3.42</time>
   <dipole>
    <v name="dipole">      0.00000000       0.00000000      -0.27042527 </v>
    <i name="Tr[quadrupol]">   -498.57105369 </i>
    <i name="Echarged">      0.00000000 </i>
    <i name="Edipol_quadrupol">      0.00000000 </i>
    <i name="Eion">      0.00000000 </i>
   </dipole>
   <energy>
    <i name="e_fr_energy">   -124.23629702 </i>
    <i name="e_wo_entrp">   -124.22452014 </i>
    <i name="e_0_energy">   -124.23040858 </i>
   </energy>
  </scstep>
  <scstep>
   <time name="diag">    0.61    0.61</time>
   <time name="diis">    2.00    2.01</time>
   <time name="orth">    0.15    0.15</time>
   <time name="total">    3.42    3.43</time>
   <dipole>
    <v name="dipole">      0.00000000       0.00000000      -0.25983113 </v>
    <i name="Tr[quadrupol]">   -498.66242704 </i>
    <i name="Echarged">      0.00000000 </i>
    <i name="Edipol_quadrupol">      0.00000000 </i>
    <i name="Eion">      0.00000000 </i>
   </dipole>
   <energy>
    <i name="e_fr_energy">   -124.17923197 </i>
    <i name="e_wo_entrp">   -124.16647657 </i>
    <i name="e_0_energy">   -124.17285427 </i>
   </energy>
  </scstep>
  <scstep>
   <time name="diag">    0.61    0.62</time>
   <time name="diis">    2.06    2.06</time>
   <time name="orth">    0.14    0.15</time>
   <time name="total">    3.47    3.49</time>
   <dipole>
    <v name="dipole">      0.00000000       0.00000000      -0.21194217 </v>
    <i name="Tr[quadrupol]">   -499.12605281 </i>
    <i name="Echarged">      0.00000000 </i>
    <i name="Edipol_quadrupol">      0.00000000 </i>
    <i name="Eion">      0.00000000 </i>
   </dipole>
   <energy>
    <i name="e_fr_energy">   -124.02792549 </i>
    <i name="e_wo_entrp">   -124.01227573 </i>
    <i name="e_0_energy">   -124.02010061 </i>
   </energy>
  </scstep>
  <scstep>
   <time name="diag">    0.61    0.61</time>
   <time name="diis">    2.07    2.08</time>
   <time name="orth">    0.14    0.15</time>
   <time name="total">    3.49    3.50</time>
   <dipole>
    <v name="dipole">      0.00000000       0.00000000      -0.19138591 </v>
    <i name="Tr[quadrupol]">   -499.41354453 </i>
    <i name="Echarged">      0.00000000 </i>
    <i name="Edipol_quadrupol">      0.00000000 </i>
    <i name="Eion">      0.00000000 </i>
   </dipole>
   <energy>
    <i name="e_fr_energy">   -124.01303947 </i>
    <i name="e_wo_entrp">   -123.99637239 </i>
    <i name="e_0_energy">   -124.00470593 </i>
   </energy>
  </scstep>
  <scstep>
   <time name="diag">    0.61    0.61</time>
   <time name="diis">    2.03    2.03</time>
   <time name="orth">    0.14    0.15</time>
   <time name="total">    3.44    3.45</time>
   <dipole>
    <v name="dipole">      0.00000000       0.00000000      -0.17671963 </v>
    <i name="Tr[quadrupol]">   -499.68920267 </i>
    <i name="Echarged">      0.00000000 </i>
    <i name="Edipol_quadrupol">      0.00000000 </i>
    <i name="Eion">      0.00000000 </i>
   </dipole>
   <energy>
    <i name="e_fr_energy">   -124.01164312 </i>
    <i name="e_wo_entrp">   -123.99600778 </i>
    <i name="e_0_energy">   -124.00382545 </i>
   </energy>
  </scstep>
  <scstep>
   <time name="diag">    0.61    0.61</time>
   <time name="diis">    1.90    1.90</time>
   <time name="orth">    0.14    0.15</time>
   <time name="total">    3.31    3.32</time>
   <dipole>
    <v name="dipole">      0.00000000       0.00000000      -0.17386776 </v>
    <i name="Tr[quadrupol]">   -499.76870805 </i>
    <i name="Echarged">      0.00000000 </i>
    <i name="Edipol_quadrupol">      0.00000000 </i>
    <i name="Eion">      0.00000000 </i>
   </dipole>
   <energy>
    <i name="e_fr_energy">   -124.01143965 </i>
    <i name="e_wo_entrp">   -123.99512390 </i>
    <i name="e_0_energy">   -124.00328178 </i>
   </energy>
  </scstep>
  <scstep>
   <time name="diag">    0.61    0.62</time>
   <time name="diis">    1.91    1.92</time>
   <time name="orth">    0.15    0.15</time>
   <time name="total">    3.33    3.34</time>
   <dipole>
    <v name="dipole">      0.00000000       0.00000000      -0.17225724 </v>
    <i name="Tr[quadrupol]">   -499.82999364 </i>
    <i name="Echarged">      0.00000000 </i>
    <i name="Edipol_quadrupol">      0.00000000 </i>
    <i name="Eion">      0.00000000 </i>
   </dipole>
   <energy>
    <i name="e_fr_energy">   -124.01991012 </i>
    <i name="e_wo_entrp">   -124.00176607 </i>
    <i name="e_0_energy">   -124.01083810 </i>
   </energy>
  </scstep>
  <scstep>
   <time name="diag">    0.61    0.61</time>
   <time name="diis">    2.00    2.00</time>
   <time name="orth">    0.15    0.15</time>
   <time name="total">    3.42    3.42</time>
   <dipole>
    <v name="dipole">      0.00000000       0.00000000      -0.16840744 </v>
    <i name="Tr[quadrupol]">   -499.70551036 </i>
    <i name="Echarged">      0.00000000 </i>
    <i name="Edipol_quadrupol">      0.00000000 </i>
    <i name="Eion">      0.00000000 </i>
   </dipole>
   <energy>
    <i name="e_fr_energy">   -124.07145133 </i>
    <i name="e_wo_entrp">   -124.05382498 </i>
    <i name="e_0_energy">   -124.06263815 </i>
   </energy>
  </scstep>
  <scstep>
   <time name="diag">    0.61    0.61</time>
   <time name="diis">    1.94    1.94</time>
   <time name="orth">    0.14    0.15</time>
   <time name="total">    3.36    3.37</time>
   <dipole>
    <v name="dipole">      0.00000000       0.00000000      -0.15955547 </v>
    <i name="Tr[quadrupol]">   -499.81916861 </i>
    <i name="Echarged">      0.00000000 </i>
    <i name="Edipol_quadrupol">      0.00000000 </i>
    <i name="Eion">      0.00000000 </i>
   </dipole>
   <energy>
    <i name="e_fr_energy">   -124.09527534 </i>
    <i name="e_wo_entrp">   -124.07998409 </i>
    <i name="e_0_energy">   -124.08762971 </i>
   </energy>
  </scstep>
  <scstep>
   <time name="diag">    0.61    0.61</time>
   <time name="diis">    1.60    1.60</time>
   <time name="orth">    0.15    0.15</time>
   <time name="total">    3.02    3.03</time>
   <dipole>
    <v name="dipole">      0.00000000       0.00000000      -0.15724087 </v>
    <i name="Tr[quadrupol]">   -499.89135360 </i>
    <i name="Echarged">      0.00000000 </i>
    <i name="Edipol_quadrupol">      0.00000000 </i>
    <i name="Eion">      0.00000000 </i>
   </dipole>
   <energy>
    <i name="e_fr_energy">   -124.09554940 </i>
    <i name="e_wo_entrp">   -124.08035553 </i>
    <i name="e_0_energy">   -124.08795246 </i>
   </energy>
  </scstep>
  <scstep>
   <time name="diag">    0.61    0.61</time>
   <time name="diis">    1.30    1.30</time>
   <time name="orth">    0.15    0.15</time>
   <time name="total">    2.72    2.73</time>
   <dipole>
    <v name="dipole">      0.00000000       0.00000000      -0.15801782 </v>
    <i name="Tr[quadrupol]">   -499.94582828 </i>
    <i name="Echarged">      0.00000000 </i>
    <i name="Edipol_quadrupol">      0.00000000 </i>
    <i name="Eion">      0.00000000 </i>
   </dipole>
   <energy>
    <i name="e_fr_energy">   -124.08728318 </i>
    <i name="e_wo_entrp">   -124.07176913 </i>
    <i name="e_0_energy">   -124.07952616 </i>
   </energy>
  </scstep>
  <scstep>
   <time name="diag">    0.62    0.62</time>
   <time name="diis">    2.03    2.03</time>
   <time name="orth">    0.15    0.15</time>
   <time name="total">    3.45    3.46</time>
   <dipole>
    <v name="dipole">      0.00000000       0.00000000      -0.17271099 </v>
    <i name="Tr[quadrupol]">   -499.92821986 </i>
    <i name="Echarged">      0.00000000 </i>
    <i name="Edipol_quadrupol">      0.00000000 </i>
    <i name="Eion">      0.00000000 </i>
   </dipole>
   <energy>
    <i name="e_fr_energy">   -124.05285366 </i>
    <i name="e_wo_entrp">   -124.03314854 </i>
    <i name="e_0_energy">   -124.04300110 </i>
   </energy>
  </scstep>
  <scstep>
   <time name="diag">    0.61    0.61</time>
   <time name="diis">    1.95    1.96</time>
   <time name="orth">    0.15    0.15</time>
   <time name="total">    3.38    3.39</time>
   <dipole>
    <v name="dipole">      0.00000000       0.00000000      -0.17462713 </v>
    <i name="Tr[quadrupol]">   -499.99431402 </i>
    <i name="Echarged">      0.00000000 </i>
    <i name="Edipol_quadrupol">      0.00000000 </i>
    <i name="Eion">      0.00000000 </i>
   </dipole>
   <energy>
    <i name="e_fr_energy">   -124.08739945 </i>
    <i name="e_wo_entrp">   -124.06899188 </i>
    <i name="e_0_energy">   -124.07819567 </i>
   </energy>
  </scstep>
  <scstep>
   <time name="diag">    0.61    0.61</time>
   <time name="diis">    1.86    1.86</time>
   <time name="orth">    0.15    0.15</time>
   <time name="total">    3.28    3.29</time>
   <dipole>
    <v name="dipole">      0.00000000       0.00000000      -0.17239957 </v>
    <i name="Tr[quadrupol]">   -499.98641463 </i>
    <i name="Echarged">      0.00000000 </i>
    <i name="Edipol_quadrupol">      0.00000000 </i>
    <i name="Eion">      0.00000000 </i>
   </dipole>
   <energy>
    <i name="e_fr_energy">   -124.10804772 </i>
    <i name="e_wo_entrp">   -124.09102670 </i>
    <i name="e_0_energy">   -124.09953721 </i>
   </energy>
  </scstep>
  <scstep>
   <time name="diag">    0.61    0.61</time>
   <time name="diis">    1.97    1.98</time>
   <time name="orth">    0.15    0.15</time>
   <time name="total">    3.40    3.41</time>
   <dipole>
    <v name="dipole">      0.00000000       0.00000000      -0.18544360 </v>
    <i name="Tr[quadrupol]">   -499.76093671 </i>
    <i name="Echarged">      0.00000000 </i>
    <i name="Edipol_quadrupol">      0.00000000 </i>
    <i name="Eion">      0.00000000 </i>
   </dipole>
   <energy>
    <i name="e_fr_energy">   -124.12422779 </i>
    <i name="e_wo_entrp">   -124.10693460 </i>
    <i name="e_0_energy">   -124.11558119 </i>
   </energy>
  </scstep>
  <scstep>
   <time name="diag">    0.61    0.61</time>
   <time name="diis">    1.91    1.91</time>
   <time name="orth">    0.14    0.15</time>
   <time name="total">    3.35    3.35</time>
   <dipole>
    <v name="dipole">      0.00000000       0.00000000      -0.18763975 </v>
    <i name="Tr[quadrupol]">   -499.69880316 </i>
    <i name="Echarged">      0.00000000 </i>
    <i name="Edipol_quadrupol">      0.00000000 </i>
    <i name="Eion">      0.00000000 </i>
   </dipole>
   <energy>
    <i name="e_fr_energy">   -124.13798332 </i>
    <i name="e_wo_entrp">   -124.12153029 </i>
    <i name="e_0_energy">   -124.12975681 </i>
   </energy>
  </scstep>
  <scstep>
   <time name="diag">    0.61    0.62</time>
   <time name="diis">    1.78    1.78</time>
   <time name="orth">    0.15    0.15</time>
   <time name="total">    3.21    3.22</time>
   <dipole>
    <v name="dipole">      0.00000000       0.00000000      -0.18636695 </v>
    <i name="Tr[quadrupol]">   -499.77603235 </i>
    <i name="Echarged">      0.00000000 </i>
    <i name="Edipol_quadrupol">      0.00000000 </i>
    <i name="Eion">      0.00000000 </i>
   </dipole>
   <energy>
    <i name="e_fr_energy">   -124.14227995 </i>
    <i name="e_wo_entrp">   -124.12603461 </i>
    <i name="e_0_energy">   -124.13415728 </i>
   </energy>
  </scstep>
  <scstep>
   <time name="diag">    0.61    0.62</time>
   <time name="diis">    1.64    1.64</time>
   <time name="orth">    0.15    0.15</time>
   <time name="total">    3.07    3.08</time>
   <dipole>
    <v name="dipole">      0.00000000       0.00000000      -0.18476235 </v>
    <i name="Tr[quadrupol]">   -499.83984769 </i>
    <i name="Echarged">      0.00000000 </i>
    <i name="Edipol_quadrupol">      0.00000000 </i>
    <i name="Eion">      0.00000000 </i>
   </dipole>
   <energy>
    <i name="e_fr_energy">   -124.14398829 </i>
    <i name="e_wo_entrp">   -124.12754420 </i>
    <i name="e_0_energy">   -124.13576624 </i>
   </energy>
  </scstep>
  <scstep>
   <time name="diag">    0.61    0.61</time>
   <time name="diis">    1.66    1.66</time>
   <time name="orth">    0.14    0.15</time>
   <time name="total">    3.09    3.10</time>
   <dipole>
    <v name="dipole">      0.00000000       0.00000000      -0.18595801 </v>
    <i name="Tr[quadrupol]">   -499.84805570 </i>
    <i name="Echarged">      0.00000000 </i>
    <i name="Edipol_quadrupol">      0.00000000 </i>
    <i name="Eion">      0.00000000 </i>
   </dipole>
   <energy>
    <i name="e_fr_energy">   -124.14801930 </i>
    <i name="e_wo_entrp">   -124.13174965 </i>
    <i name="e_0_energy">   -124.13988448 </i>
   </energy>
  </scstep>
  <scstep>
   <time name="diag">    0.61    0.62</time>
   <time name="diis">    1.95    1.96</time>
   <time name="orth">    0.14    0.15</time>
   <time name="total">    3.38    3.40</time>
   <dipole>
    <v name="dipole">      0.00000000       0.00000000      -0.18595012 </v>
    <i name="Tr[quadrupol]">   -499.68786320 </i>
    <i name="Echarged">      0.00000000 </i>
    <i name="Edipol_quadrupol">      0.00000000 </i>
    <i name="Eion">      0.00000000 </i>
   </dipole>
   <energy>
    <i name="e_fr_energy">   -124.15748974 </i>
    <i name="e_wo_entrp">   -124.14148949 </i>
    <i name="e_0_energy">   -124.14948962 </i>
   </energy>
  </scstep>
  <scstep>
   <time name="diag">    0.61    0.61</time>
   <time name="diis">    1.93    1.94</time>
   <time name="orth">    0.14    0.15</time>
   <time name="total">    3.36    3.38</time>
   <dipole>
    <v name="dipole">      0.00000000       0.00000000      -0.20371231 </v>
    <i name="Tr[quadrupol]">   -500.18232701 </i>
    <i name="Echarged">      0.00000000 </i>
    <i name="Edipol_quadrupol">      0.00000000 </i>
    <i name="Eion">      0.00000000 </i>
   </dipole>
   <energy>
    <i name="e_fr_energy">   -124.16111290 </i>
    <i name="e_wo_entrp">   -124.14444483 </i>
    <i name="e_0_energy">   -124.15277886 </i>
   </energy>
  </scstep>
  <scstep>
   <time name="diag">    0.61    0.61</time>
   <time name="diis">    1.61    1.62</time>
   <time name="orth">    0.14    0.15</time>
   <time name="total">    3.06    3.06</time>
   <dipole>
    <v name="dipole">      0.00000000       0.00000000      -0.21329559 </v>
    <i name="Tr[quadrupol]">   -500.45849524 </i>
    <i name="Echarged">      0.00000000 </i>
    <i name="Edipol_quadrupol">      0.00000000 </i>
    <i name="Eion">      0.00000000 </i>
   </dipole>
   <energy>
    <i name="e_fr_energy">   -124.16302307 </i>
    <i name="e_wo_entrp">   -124.14556612 </i>
    <i name="e_0_energy">   -124.15429460 </i>
   </energy>
  </scstep>
  <scstep>
   <time name="diag">    0.61    0.61</time>
   <time name="diis">    1.66    1.66</time>
   <time name="orth">    0.14    0.15</time>
   <time name="total">    3.09    3.10</time>
   <dipole>
    <v name="dipole">      0.00000000       0.00000000      -0.21567098 </v>
    <i name="Tr[quadrupol]">   -500.58489681 </i>
    <i name="Echarged">      0.00000000 </i>
    <i name="Edipol_quadrupol">      0.00000000 </i>
    <i name="Eion">      0.00000000 </i>
   </dipole>
   <energy>
    <i name="e_fr_energy">   -124.15810286 </i>
    <i name="e_wo_entrp">   -124.14017237 </i>
    <i name="e_0_energy">   -124.14913761 </i>
   </energy>
  </scstep>
  <scstep>
   <time name="diag">    0.61    0.61</time>
   <time name="diis">    1.30    1.30</time>
   <time name="orth">    0.14    0.14</time>
   <time name="total">    2.74    2.74</time>
   <dipole>
    <v name="dipole">      0.00000000       0.00000000      -0.21648942 </v>
    <i name="Tr[quadrupol]">   -500.62480156 </i>
    <i name="Echarged">      0.00000000 </i>
    <i name="Edipol_quadrupol">      0.00000000 </i>
    <i name="Eion">      0.00000000 </i>
   </dipole>
   <energy>
    <i name="e_fr_energy">   -124.15755715 </i>
    <i name="e_wo_entrp">   -124.13937029 </i>
    <i name="e_0_energy">   -124.14846372 </i>
   </energy>
  </scstep>
  <scstep>
   <time name="diag">    0.62    0.62</time>
   <time name="diis">    1.76    1.76</time>
   <time name="orth">    0.14    0.15</time>
   <time name="total">    3.20    3.20</time>
   <dipole>
    <v name="dipole">      0.00000000       0.00000000      -0.21154101 </v>
    <i name="Tr[quadrupol]">   -500.64864551 </i>
    <i name="Echarged">      0.00000000 </i>
    <i name="Edipol_quadrupol">      0.00000000 </i>
    <i name="Eion">      0.00000000 </i>
   </dipole>
   <energy>
    <i name="e_fr_energy">   -124.15540000 </i>
    <i name="e_wo_entrp">   -124.13692805 </i>
    <i name="e_0_energy">   -124.14616403 </i>
   </energy>
  </scstep>
  <scstep>
   <time name="diag">    0.61    0.62</time>
   <time name="diis">    1.94    1.94</time>
   <time name="orth">    0.14    0.15</time>
   <time name="total">    3.37    3.38</time>
   <dipole>
    <v name="dipole">      0.00000000       0.00000000      -0.20674691 </v>
    <i name="Tr[quadrupol]">   -500.58297874 </i>
    <i name="Echarged">      0.00000000 </i>
    <i name="Edipol_quadrupol">      0.00000000 </i>
    <i name="Eion">      0.00000000 </i>
   </dipole>
   <energy>
    <i name="e_fr_energy">   -124.16135710 </i>
    <i name="e_wo_entrp">   -124.14316430 </i>
    <i name="e_0_energy">   -124.15226070 </i>
   </energy>
  </scstep>
  <scstep>
   <time name="diag">    0.61    0.62</time>
   <time name="diis">    1.79    1.79</time>
   <time name="orth">    0.15    0.15</time>
   <time name="total">    3.23    3.24</time>
   <dipole>
    <v name="dipole">      0.00000000       0.00000000      -0.21018721 </v>
    <i name="Tr[quadrupol]">   -500.54101451 </i>
    <i name="Echarged">      0.00000000 </i>
    <i name="Edipol_quadrupol">      0.00000000 </i>
    <i name="Eion">      0.00000000 </i>
   </dipole>
   <energy>
    <i name="e_fr_energy">   -124.16178780 </i>
    <i name="e_wo_entrp">   -124.14172796 </i>
    <i name="e_0_energy">   -124.15175788 </i>
   </energy>
  </scstep>
  <scstep>
   <time name="diag">    0.61    0.61</time>
   <time name="diis">    1.62    1.62</time>
   <time name="orth">    0.14    0.15</time>
   <time name="total">    3.06    3.06</time>
   <dipole>
    <v name="dipole">      0.00000000       0.00000000      -0.19789824 </v>
    <i name="Tr[quadrupol]">   -500.04300926 </i>
    <i name="Echarged">      0.00000000 </i>
    <i name="Edipol_quadrupol">      0.00000000 </i>
    <i name="Eion">      0.00000000 </i>
   </dipole>
   <energy>
    <i name="e_fr_energy">   -124.16568590 </i>
    <i name="e_wo_entrp">   -124.14721346 </i>
    <i name="e_0_energy">   -124.15644968 </i>
   </energy>
  </scstep>
  <scstep>
   <time name="diag">    0.61    0.62</time>
   <time name="diis">    1.73    1.73</time>
   <time name="orth">    0.15    0.15</time>
   <time name="total">    3.17    3.18</time>
   <dipole>
    <v name="dipole">      0.00000000       0.00000000      -0.21192827 </v>
    <i name="Tr[quadrupol]">   -500.20353242 </i>
    <i name="Echarged">      0.00000000 </i>
    <i name="Edipol_quadrupol">      0.00000000 </i>
    <i name="Eion">      0.00000000 </i>
   </dipole>
   <energy>
    <i name="e_fr_energy">   -124.16617811 </i>
    <i name="e_wo_entrp">   -124.14510255 </i>
    <i name="e_0_energy">   -124.15564033 </i>
   </energy>
  </scstep>
  <scstep>
   <time name="diag">    0.61    0.61</time>
   <time name="diis">    1.68    1.68</time>
   <time name="orth">    0.15    0.15</time>
   <time name="total">    3.13    3.13</time>
   <dipole>
    <v name="dipole">      0.00000000       0.00000000      -0.20030712 </v>
    <i name="Tr[quadrupol]">   -499.84752168 </i>
    <i name="Echarged">      0.00000000 </i>
    <i name="Edipol_quadrupol">      0.00000000 </i>
    <i name="Eion">      0.00000000 </i>
   </dipole>
   <energy>
    <i name="e_fr_energy">   -124.16357452 </i>
    <i name="e_wo_entrp">   -124.14297089 </i>
    <i name="e_0_energy">   -124.15327271 </i>
   </energy>
  </scstep>
  <scstep>
   <time name="diag">    0.61    0.61</time>
   <time name="diis">    1.46    1.47</time>
   <time name="orth">    0.14    0.15</time>
   <time name="total">    2.90    2.92</time>
   <dipole>
    <v name="dipole">      0.00000000       0.00000000      -0.20096154 </v>
    <i name="Tr[quadrupol]">   -499.69743347 </i>
    <i name="Echarged">      0.00000000 </i>
    <i name="Edipol_quadrupol">      0.00000000 </i>
    <i name="Eion">      0.00000000 </i>
   </dipole>
   <energy>
    <i name="e_fr_energy">   -124.16541238 </i>
    <i name="e_wo_entrp">   -124.14448928 </i>
    <i name="e_0_energy">   -124.15495083 </i>
   </energy>
  </scstep>
  <scstep>
   <time name="diag">    0.61    0.62</time>
   <time name="diis">    1.40    1.40</time>
   <time name="orth">    0.15    0.15</time>
   <time name="total">    2.84    2.85</time>
   <dipole>
    <v name="dipole">      0.00000000       0.00000000      -0.20001154 </v>
    <i name="Tr[quadrupol]">   -499.58773832 </i>
    <i name="Echarged">      0.00000000 </i>
    <i name="Edipol_quadrupol">      0.00000000 </i>
    <i name="Eion">      0.00000000 </i>
   </dipole>
   <energy>
    <i name="e_fr_energy">   -124.16685319 </i>
    <i name="e_wo_entrp">   -124.14602607 </i>
    <i name="e_0_energy">   -124.15643963 </i>
   </energy>
  </scstep>
  <scstep>
   <time name="diag">    0.61    0.61</time>
   <time name="diis">    1.34    1.34</time>
   <time name="orth">    0.14    0.15</time>
   <time name="total">    2.78    2.78</time>
   <dipole>
    <v name="dipole">      0.00000000       0.00000000      -0.19920594 </v>
    <i name="Tr[quadrupol]">   -499.53044169 </i>
    <i name="Echarged">      0.00000000 </i>
    <i name="Edipol_quadrupol">      0.00000000 </i>
    <i name="Eion">      0.00000000 </i>
   </dipole>
   <energy>
    <i name="e_fr_energy">   -124.16822383 </i>
    <i name="e_wo_entrp">   -124.14750384 </i>
    <i name="e_0_energy">   -124.15786383 </i>
   </energy>
  </scstep>
  <scstep>
   <time name="diag">    0.61    0.61</time>
   <time name="diis">    1.27    1.28</time>
   <time name="orth">    0.15    0.15</time>
   <time name="total">    2.71    2.72</time>
   <dipole>
    <v name="dipole">      0.00000000       0.00000000      -0.20136323 </v>
    <i name="Tr[quadrupol]">   -499.87355390 </i>
    <i name="Echarged">      0.00000000 </i>
    <i name="Edipol_quadrupol">      0.00000000 </i>
    <i name="Eion">      0.00000000 </i>
   </dipole>
   <energy>
    <i name="e_fr_energy">   -124.16913217 </i>
    <i name="e_wo_entrp">   -124.14829875 </i>
    <i name="e_0_energy">   -124.15871546 </i>
   </energy>
  </scstep>
  <scstep>
   <time name="diag">    0.61    0.61</time>
   <time name="diis">    1.22    1.23</time>
   <time name="orth">    0.15    0.15</time>
   <time name="total">    2.66    2.67</time>
   <dipole>
    <v name="dipole">      0.00000000       0.00000000      -0.20079809 </v>
    <i name="Tr[quadrupol]">   -500.03791825 </i>
    <i name="Echarged">      0.00000000 </i>
    <i name="Edipol_quadrupol">      0.00000000 </i>
    <i name="Eion">      0.00000000 </i>
   </dipole>
   <energy>
    <i name="e_fr_energy">   -124.16940994 </i>
    <i name="e_wo_entrp">   -124.14867381 </i>
    <i name="e_0_energy">   -124.15904187 </i>
   </energy>
  </scstep>
  <scstep>
   <time name="diag">    0.61    0.62</time>
   <time name="diis">    1.25    1.25</time>
   <time name="orth">    0.14    0.15</time>
   <time name="total">    2.69    2.70</time>
   <dipole>
    <v name="dipole">      0.00000000       0.00000000      -0.19893164 </v>
    <i name="Tr[quadrupol]">   -500.06566761 </i>
    <i name="Echarged">      0.00000000 </i>
    <i name="Edipol_quadrupol">      0.00000000 </i>
    <i name="Eion">      0.00000000 </i>
   </dipole>
   <energy>
    <i name="e_fr_energy">   -124.16992348 </i>
    <i name="e_wo_entrp">   -124.14939090 </i>
    <i name="e_0_energy">   -124.15965719 </i>
   </energy>
  </scstep>
  <scstep>
   <time name="diag">    0.61    0.62</time>
   <time name="diis">    1.21    1.21</time>
   <time name="orth">    0.15    0.15</time>
   <time name="total">    2.66    2.67</time>
   <dipole>
    <v name="dipole">      0.00000000       0.00000000      -0.19794502 </v>
    <i name="Tr[quadrupol]">   -500.05312240 </i>
    <i name="Echarged">      0.00000000 </i>
    <i name="Edipol_quadrupol">      0.00000000 </i>
    <i name="Eion">      0.00000000 </i>
   </dipole>
   <energy>
    <i name="e_fr_energy">   -124.17042727 </i>
    <i name="e_wo_entrp">   -124.14997160 </i>
    <i name="e_0_energy">   -124.16019944 </i>
   </energy>
  </scstep>
  <scstep>
   <time name="diag">    0.61    0.62</time>
   <time name="diis">    1.19    1.19</time>
   <time name="orth">    0.14    0.15</time>
   <time name="total">    2.63    2.63</time>
   <dipole>
    <v name="dipole">      0.00000000       0.00000000      -0.19753807 </v>
    <i name="Tr[quadrupol]">   -499.99855110 </i>
    <i name="Echarged">      0.00000000 </i>
    <i name="Edipol_quadrupol">      0.00000000 </i>
    <i name="Eion">      0.00000000 </i>
   </dipole>
   <energy>
    <i name="e_fr_energy">   -124.17079312 </i>
    <i name="e_wo_entrp">   -124.15026715 </i>
    <i name="e_0_energy">   -124.16053013 </i>
   </energy>
  </scstep>
  <scstep>
   <time name="diag">    0.61    0.61</time>
   <time name="diis">    1.11    1.12</time>
   <time name="orth">    0.15    0.15</time>
   <time name="total">    2.56    2.56</time>
   <dipole>
    <v name="dipole">      0.00000000       0.00000000      -0.19725789 </v>
    <i name="Tr[quadrupol]">   -499.86318839 </i>
    <i name="Echarged">      0.00000000 </i>
    <i name="Edipol_quadrupol">      0.00000000 </i>
    <i name="Eion">      0.00000000 </i>
   </dipole>
   <energy>
    <i name="e_fr_energy">   -124.17100712 </i>
    <i name="e_wo_entrp">   -124.15045005 </i>
    <i name="e_0_energy">   -124.16072859 </i>
   </energy>
  </scstep>
  <scstep>
   <time name="diag">    0.61    0.62</time>
   <time name="diis">    1.13    1.14</time>
   <time name="orth">    0.15    0.15</time>
   <time name="total">    2.57    2.59</time>
   <dipole>
    <v name="dipole">      0.00000000       0.00000000      -0.19712878 </v>
    <i name="Tr[quadrupol]">   -499.77121559 </i>
    <i name="Echarged">      0.00000000 </i>
    <i name="Edipol_quadrupol">      0.00000000 </i>
    <i name="Eion">      0.00000000 </i>
   </dipole>
   <energy>
    <i name="e_fr_energy">   -124.17115500 </i>
    <i name="e_wo_entrp">   -124.15057883 </i>
    <i name="e_0_energy">   -124.16086691 </i>
   </energy>
  </scstep>
  <scstep>
   <time name="diag">    0.61    0.62</time>
   <time name="diis">    1.14    1.14</time>
   <time name="orth">    0.15    0.15</time>
   <time name="total">    2.58    2.59</time>
   <dipole>
    <v name="dipole">      0.00000000       0.00000000      -0.19623051 </v>
    <i name="Tr[quadrupol]">   -499.97891152 </i>
    <i name="Echarged">      0.00000000 </i>
    <i name="Edipol_quadrupol">      0.00000000 </i>
    <i name="Eion">      0.00000000 </i>
   </dipole>
   <energy>
    <i name="e_fr_energy">   -124.17128437 </i>
    <i name="e_wo_entrp">   -124.15076916 </i>
    <i name="e_0_energy">   -124.16102676 </i>
   </energy>
  </scstep>
  <scstep>
   <time name="diag">    0.61    0.62</time>
   <time name="diis">    1.09    1.09</time>
   <time name="orth">    0.15    0.15</time>
   <time name="total">    2.34    2.36</time>
   <dipole>
    <v name="dipole">      0.00000000       0.00000000      -0.19618743 </v>
    <i name="Tr[quadrupol]">   -500.10686098 </i>
    <i name="Echarged">      0.00000000 </i>
    <i name="Edipol_quadrupol">      0.00000000 </i>
    <i name="Eion">      0.00000000 </i>
   </dipole>
   <energy>
    <i name="alphaZ">    600.68264369 </i>
    <i name="ewald">  92138.10995991 </i>
    <i name="hartreedc">-108883.11020674 </i>
    <i name="XCdc">    765.06527250 </i>
    <i name="pawpsdc">  13813.43795033 </i>
    <i name="pawaedc"> -14162.10031858 </i>
    <i name="eentropy">     -0.02056505 </i>
    <i name="bandstr">  -2804.02952644 </i>
    <i name="atom">  18407.79351682 </i>
    <i name="e_fr_energy">   -124.17127357 </i>
    <i name="e_wo_entrp">   -124.15070852 </i>
    <i name="e_0_energy">   -124.16099104 </i>
   </energy>
  </scstep>
  <structure>
   <crystal>
    <varray name="basis" >
     <v>       3.88680817       0.00000000       0.00000000 </v>
     <v>       0.00000000       3.88680817       0.00000000 </v>
     <v>       0.00000000       0.00000000      30.54723268 </v>
    </varray>
    <i name="volume">    461.48552838 </i>
    <varray name="rec_basis" >
     <v>       0.25728051       0.00000000       0.00000000 </v>
     <v>       0.00000000       0.25728051       0.00000000 </v>
     <v>       0.00000000       0.00000000       0.03273619 </v>
    </varray>
   </crystal>
   <varray name="positions" >
    <v>       0.50000000       0.50000000       0.06361964 </v>
    <v>       0.50000000       0.50000000       0.19085893 </v>
    <v>       0.50000000       0.50000000       0.31852341 </v>
    <v>       0.50000000       0.50000000       0.44076390 </v>
    <v>       0.00000000       0.00000000       0.00000000 </v>
    <v>       0.00000000       0.00000000       0.12723929 </v>
    <v>       0.00000000       0.00000000       0.25556037 </v>
    <v>       0.00000000       0.00000000       0.38494139 </v>
    <v>       0.50000000       0.00000000       0.00000000 </v>
    <v>       0.50000000       0.00000000       0.12723929 </v>
    <v>       0.50000000       0.00000000       0.25524104 </v>
    <v>       0.50000000       0.00000000       0.38439581 </v>
    <v>       0.00000000       0.50000000       0.00000000 </v>
    <v>       0.00000000       0.50000000       0.12723929 </v>
    <v>       0.00000000       0.50000000       0.25524104 </v>
    <v>       0.00000000       0.50000000       0.38439581 </v>
    <v>       0.00000000       0.00000000       0.06361964 </v>
    <v>       0.00000000       0.00000000       0.19085893 </v>
    <v>       0.00000000       0.00000000       0.32020575 </v>
    <v>       0.00000000       0.00000000       0.44865975 </v>
   </varray>
  </structure>
  <varray name="forces" >
   <v>       0.00000000       0.00000000      -0.37339822 </v>
   <v>       0.00000000       0.00000000       0.05473998 </v>
   <v>       0.00000000       0.00000000       0.00552247 </v>
   <v>       0.00000000       0.00000000       0.00580581 </v>
   <v>       0.00000000       0.00000000       0.21146856 </v>
   <v>       0.00000000       0.00000000      -0.02078960 </v>
   <v>       0.00000000       0.00000000       0.00366322 </v>
   <v>       0.00000000       0.00000000      -0.00128682 </v>
   <v>       0.00000000       0.00000000      -0.22918241 </v>
   <v>       0.00000000       0.00000000       0.03771982 </v>
   <v>       0.00000000       0.00000000       0.00136608 </v>
   <v>       0.00000000       0.00000000       0.00177816 </v>
   <v>       0.00000000       0.00000000      -0.22918241 </v>
   <v>       0.00000000       0.00000000       0.03771982 </v>
   <v>       0.00000000       0.00000000       0.00136608 </v>
   <v>       0.00000000       0.00000000       0.00177816 </v>
   <v>       0.00000000       0.00000000       0.36886402 </v>
   <v>       0.00000000       0.00000000       0.11112060 </v>
   <v>       0.00000000       0.00000000       0.00849692 </v>
   <v>       0.00000000       0.00000000       0.00242975 </v>
  </varray>
  <energy>
   <i name="e_fr_energy">   -124.17127357 </i>
   <i name="e_wo_entrp">   -124.16099104 </i>
   <i name="e_0_energy">     -0.02056505 </i>
  </energy>
  <time name="totalsc">  243.12  243.80</time>
  <eigenvalues>
   <array>
    <dimension dim="1">band</dimension>
    <dimension dim="2">kpoint</dimension>
    <dimension dim="3">spin</dimension>
    <field>eigene</field>
    <field>occ</field>
    <set>
     <set comment="spin 1">
      <set comment="kpoint 1">
       <r>  -58.2269    1.0000 </r>
       <r>  -58.1204    1.0000 </r>
       <r>  -58.1122    1.0000 </r>
       <r>  -58.1122    1.0000 </r>
       <r>  -58.1049    1.0000 </r>
       <r>  -58.1048    1.0000 </r>
       <r>  -58.1025    1.0000 </r>
       <r>  -58.0557    1.0000 </r>
       <r>  -58.0557    1.0000 </r>
       <r>  -58.0200    1.0000 </r>
       <r>  -57.9478    1.0000 </r>
       <r>  -57.9477    1.0000 </r>
       <r>  -34.2765    1.0000 </r>
       <r>  -33.6754    1.0000 </r>
       <r>  -33.6205    1.0000 </r>
       <r>  -33.4721    1.0000 </r>
       <r>  -19.1815    1.0000 </r>
       <r>  -19.0613    1.0000 </r>
       <r>  -18.9925    1.0000 </r>
       <r>  -18.6000    1.0000 </r>
       <r>  -18.0236    1.0000 </r>
       <r>  -17.9475    1.0000 </r>
       <r>  -17.9095    1.0000 </r>
       <r>  -17.8737    1.0000 </r>
       <r>  -17.8461    1.0000 </r>
       <r>  -17.8019    1.0000 </r>
       <r>  -17.5692    1.0000 </r>
       <r>  -17.2561    1.0000 </r>
       <r>  -16.2294    1.0000 </r>
       <r>  -16.1981    1.0000 </r>
       <r>  -16.0063    1.0000 </r>
       <r>  -15.7145    1.0000 </r>
       <r>  -15.6691    1.0000 </r>
       <r>  -15.6366    1.0000 </r>
       <r>  -15.5883    1.0000 </r>
       <r>  -15.5412    1.0000 </r>
       <r>  -15.5345    1.0000 </r>
       <r>  -15.4449    1.0000 </r>
       <r>  -15.3914    1.0000 </r>
       <r>  -15.2399    1.0000 </r>
       <r>   -8.6804    1.0000 </r>
       <r>   -8.1317    1.0000 </r>
       <r>   -8.1029    1.0000 </r>
       <r>   -8.0514    1.0000 </r>
       <r>   -8.0053    1.0000 </r>
       <r>   -7.9701    1.0000 </r>
       <r>   -7.9426    1.0000 </r>
       <r>   -7.8963    1.0000 </r>
       <r>   -7.8929    1.0000 </r>
       <r>   -7.8866    1.0000 </r>
       <r>   -7.8467    1.0000 </r>
       <r>   -7.7999    1.0000 </r>
       <r>   -7.7963    1.0000 </r>
       <r>   -7.6499    1.0000 </r>
       <r>   -7.3643    1.0000 </r>
       <r>   -7.1468    1.0000 </r>
       <r>   -7.1115    1.0000 </r>
       <r>   -7.0849    1.0000 </r>
       <r>   -6.8742    1.0000 </r>
       <r>   -6.8215    1.0000 </r>
       <r>   -5.5276    1.0000 </r>
       <r>   -5.4585    1.0000 </r>
       <r>   -5.3154    1.0000 </r>
       <r>   -4.9277    1.0000 </r>
       <r>   -4.3813    1.0000 </r>
       <r>   -4.1280    1.0000 </r>
       <r>   -4.0780    1.0000 </r>
       <r>   -3.9934    1.0000 </r>
       <r>   -3.8064    1.0000 </r>
       <r>   -3.6404    1.0000 </r>
       <r>   -3.6102    1.0000 </r>
       <r>   -3.3717    1.0000 </r>
       <r>   -3.1337    1.0000 </r>
       <r>   -2.9963    1.0000 </r>
       <r>   -2.8417    1.0000 </r>
       <r>   -2.7677    1.0000 </r>
       <r>   -2.7320    1.0000 </r>
       <r>   -2.6708    1.0000 </r>
       <r>   -2.6026    1.0000 </r>
       <r>   -2.5356    1.0000 </r>
       <r>   -2.4347    1.0000 </r>
       <r>   -2.3440    1.0000 </r>
       <r>   -2.3004    1.0000 </r>
       <r>   -2.2323    1.0000 </r>
       <r>   -2.1735    1.0000 </r>
       <r>   -2.1057    1.0000 </r>
       <r>   -2.0341    1.0000 </r>
       <r>   -1.9746    1.0000 </r>
       <r>   -1.7816    1.0000 </r>
       <r>   -1.7315    1.0000 </r>
       <r>   -1.6519    1.0000 </r>
       <r>   -1.5794    1.0000 </r>
       <r>   -1.5297    1.0000 </r>
       <r>   -1.4633    1.0000 </r>
       <r>   -1.3012    0.9813 </r>
       <r>   -1.2172    0.3836 </r>
       <r>    2.0232    0.0000 </r>
       <r>    3.9072    0.0000 </r>
       <r>    3.9351    0.0000 </r>
       <r>    4.6395    0.0000 </r>
       <r>    4.8570    0.0000 </r>
       <r>    5.2040    0.0000 </r>
       <r>    5.3396    0.0000 </r>
       <r>    5.4411    0.0000 </r>
       <r>    5.7259    0.0000 </r>
       <r>    5.8853    0.0000 </r>
       <r>    6.0489    0.0000 </r>
       <r>    6.2657    0.0000 </r>
       <r>    6.5479    0.0000 </r>
       <r>    6.6020    0.0000 </r>
      </set>
      <set comment="kpoint 2">
       <r>  -58.2269    1.0000 </r>
       <r>  -58.1203    1.0000 </r>
       <r>  -58.1133    1.0000 </r>
       <r>  -58.1121    1.0000 </r>
       <r>  -58.1059    1.0000 </r>
       <r>  -58.1047    1.0000 </r>
       <r>  -58.1025    1.0000 </r>
       <r>  -58.0568    1.0000 </r>
       <r>  -58.0556    1.0000 </r>
       <r>  -58.0200    1.0000 </r>
       <r>  -57.9488    1.0000 </r>
       <r>  -57.9476    1.0000 </r>
       <r>  -34.2608    1.0000 </r>
       <r>  -33.6592    1.0000 </r>
       <r>  -33.6042    1.0000 </r>
       <r>  -33.4555    1.0000 </r>
       <r>  -19.0092    1.0000 </r>
       <r>  -18.9139    1.0000 </r>
       <r>  -18.6752    1.0000 </r>
       <r>  -18.3747    1.0000 </r>
       <r>  -18.2223    1.0000 </r>
       <r>  -18.0405    1.0000 </r>
       <r>  -17.9825    1.0000 </r>
       <r>  -17.9227    1.0000 </r>
       <r>  -17.7961    1.0000 </r>
       <r>  -17.7848    1.0000 </r>
       <r>  -17.6001    1.0000 </r>
       <r>  -17.3612    1.0000 </r>
       <r>  -16.3329    1.0000 </r>
       <r>  -16.1503    1.0000 </r>
       <r>  -15.7258    1.0000 </r>
       <r>  -15.6710    1.0000 </r>
       <r>  -15.6594    1.0000 </r>
       <r>  -15.6201    1.0000 </r>
       <r>  -15.5263    1.0000 </r>
       <r>  -15.4760    1.0000 </r>
       <r>  -15.4400    1.0000 </r>
       <r>  -15.3570    1.0000 </r>
       <r>  -15.3289    1.0000 </r>
       <r>  -15.2426    1.0000 </r>
       <r>   -8.8850    1.0000 </r>
       <r>   -8.7228    1.0000 </r>
       <r>   -8.6873    1.0000 </r>
       <r>   -8.6256    1.0000 </r>
       <r>   -8.4084    1.0000 </r>
       <r>   -8.3159    1.0000 </r>
       <r>   -8.2771    1.0000 </r>
       <r>   -8.1734    1.0000 </r>
       <r>   -8.1304    1.0000 </r>
       <r>   -8.1117    1.0000 </r>
       <r>   -8.0957    1.0000 </r>
       <r>   -8.0656    1.0000 </r>
       <r>   -8.0040    1.0000 </r>
       <r>   -7.9939    1.0000 </r>
       <r>   -7.9185    1.0000 </r>
       <r>   -7.8893    1.0000 </r>
       <r>   -7.8567    1.0000 </r>
       <r>   -7.7984    1.0000 </r>
       <r>   -7.2884    1.0000 </r>
       <r>   -6.8900    1.0000 </r>
       <r>   -5.6215    1.0000 </r>
       <r>   -5.5887    1.0000 </r>
       <r>   -5.3570    1.0000 </r>
       <r>   -4.8213    1.0000 </r>
       <r>   -4.2023    1.0000 </r>
       <r>   -3.6936    1.0000 </r>
       <r>   -3.6687    1.0000 </r>
       <r>   -3.5578    1.0000 </r>
       <r>   -3.5137    1.0000 </r>
       <r>   -3.3350    1.0000 </r>
       <r>   -3.1432    1.0000 </r>
       <r>   -3.0994    1.0000 </r>
       <r>   -3.0159    1.0000 </r>
       <r>   -2.9959    1.0000 </r>
       <r>   -2.9571    1.0000 </r>
       <r>   -2.9292    1.0000 </r>
       <r>   -2.8946    1.0000 </r>
       <r>   -2.7691    1.0000 </r>
       <r>   -2.6795    1.0000 </r>
       <r>   -2.5194    1.0000 </r>
       <r>   -2.4956    1.0000 </r>
       <r>   -2.3289    1.0000 </r>
       <r>   -2.3143    1.0000 </r>
       <r>   -2.2426    1.0000 </r>
       <r>   -2.1430    1.0000 </r>
       <r>   -2.0013    1.0000 </r>
       <r>   -1.9336    1.0000 </r>
       <r>   -1.8490    1.0000 </r>
       <r>   -1.7988    1.0000 </r>
       <r>   -1.7643    1.0000 </r>
       <r>   -1.6478    1.0000 </r>
       <r>   -1.5290    1.0000 </r>
       <r>   -1.2888    0.9582 </r>
       <r>   -1.0140    0.0000 </r>
       <r>   -0.4297    0.0000 </r>
       <r>   -0.0391    0.0000 </r>
       <r>    3.0426    0.0000 </r>
       <r>    4.6442    0.0000 </r>
       <r>    5.0488    0.0000 </r>
       <r>    5.0751    0.0000 </r>
       <r>    5.9142    0.0000 </r>
       <r>    6.2986    0.0000 </r>
       <r>    6.3931    0.0000 </r>
       <r>    6.6026    0.0000 </r>
       <r>    6.7785    0.0000 </r>
       <r>    6.8595    0.0000 </r>
       <r>    6.9309    0.0000 </r>
       <r>    7.1679    0.0000 </r>
       <r>    7.2198    0.0000 </r>
       <r>    7.3697    0.0000 </r>
      </set>
      <set comment="kpoint 3">
       <r>  -58.2268    1.0000 </r>
       <r>  -58.1202    1.0000 </r>
       <r>  -58.1134    1.0000 </r>
       <r>  -58.1133    1.0000 </r>
       <r>  -58.1060    1.0000 </r>
       <r>  -58.1059    1.0000 </r>
       <r>  -58.1024    1.0000 </r>
       <r>  -58.0568    1.0000 </r>
       <r>  -58.0567    1.0000 </r>
       <r>  -58.0198    1.0000 </r>
       <r>  -57.9489    1.0000 </r>
       <r>  -57.9488    1.0000 </r>
       <r>  -34.2463    1.0000 </r>
       <r>  -33.6444    1.0000 </r>
       <r>  -33.5892    1.0000 </r>
       <r>  -33.4403    1.0000 </r>
       <r>  -18.6131    1.0000 </r>
       <r>  -18.5332    1.0000 </r>
       <r>  -18.3002    1.0000 </r>
       <r>  -18.2711    1.0000 </r>
       <r>  -18.0848    1.0000 </r>
       <r>  -18.0485    1.0000 </r>
       <r>  -17.9191    1.0000 </r>
       <r>  -17.8991    1.0000 </r>
       <r>  -17.7916    1.0000 </r>
       <r>  -17.6704    1.0000 </r>
       <r>  -17.5919    1.0000 </r>
       <r>  -17.1896    1.0000 </r>
       <r>  -16.4880    1.0000 </r>
       <r>  -16.2182    1.0000 </r>
       <r>  -16.0104    1.0000 </r>
       <r>  -15.8205    1.0000 </r>
       <r>  -15.7910    1.0000 </r>
       <r>  -15.7564    1.0000 </r>
       <r>  -15.6359    1.0000 </r>
       <r>  -15.6157    1.0000 </r>
       <r>  -15.5480    1.0000 </r>
       <r>  -15.4475    1.0000 </r>
       <r>  -15.4467    1.0000 </r>
       <r>  -15.3673    1.0000 </r>
       <r>   -8.9401    1.0000 </r>
       <r>   -8.9027    1.0000 </r>
       <r>   -8.8933    1.0000 </r>
       <r>   -8.8769    1.0000 </r>
       <r>   -8.6851    1.0000 </r>
       <r>   -8.6049    1.0000 </r>
       <r>   -8.4533    1.0000 </r>
       <r>   -8.3979    1.0000 </r>
       <r>   -8.3493    1.0000 </r>
       <r>   -8.3107    1.0000 </r>
       <r>   -8.3052    1.0000 </r>
       <r>   -8.2830    1.0000 </r>
       <r>   -8.2560    1.0000 </r>
       <r>   -8.2080    1.0000 </r>
       <r>   -8.1856    1.0000 </r>
[...]
       <r>    -0.2407     1.9321    94.2508 </r>
       <r>     0.0005     5.7720    95.6433 </r>
       <r>     0.2418     1.4784    95.9999 </r>
       <r>     0.4830     0.0002    96.0000 </r>
       <r>     0.7242     0.0000    96.0000 </r>
       <r>     0.9655     0.0000    96.0000 </r>
       <r>     1.2067     0.0000    96.0000 </r>
       <r>     1.4480     0.0000    96.0000 </r>
       <r>     1.6892     0.0000    96.0000 </r>
       <r>     1.9305     0.0045    96.0011 </r>
       <r>     2.1717     1.0318    96.2500 </r>
       <r>     2.4129     0.0000    96.2500 </r>
       <r>     2.6542     0.0000    96.2500 </r>
       <r>     2.8954     0.0000    96.2500 </r>
       <r>     3.1367     2.0645    96.7480 </r>
       <r>     3.3779     0.0081    96.7500 </r>
       <r>     3.6192     0.0000    96.7500 </r>
       <r>     3.8604     0.1423    96.7843 </r>
       <r>     4.1016     2.9666    97.5000 </r>
       <r>     4.3429     0.0000    97.5000 </r>
       <r>     4.5841     0.1535    97.5370 </r>
       <r>     4.8254     3.1476    98.2964 </r>
       <r>     5.0666     3.8360    99.2218 </r>
       <r>     5.3079     3.7448   100.1252 </r>
       <r>     5.5491     2.5889   100.7497 </r>
       <r>     5.7904     1.9210   101.2132 </r>
       <r>     6.0316     3.7781   102.1246 </r>
       <r>     6.2728     2.7288   102.7829 </r>
       <r>     6.5141     6.9538   104.4604 </r>
       <r>     6.7553     5.9188   105.8883 </r>
       <r>     6.9966     8.5089   107.9410 </r>
       <r>     7.2378     4.3562   108.9919 </r>
       <r>     7.4791     4.1766   109.9995 </r>
       <r>     7.7203     0.0021   110.0000 </r>
       <r>     7.9615     0.0000   110.0000 </r>
       <r>     8.2028     0.0000   110.0000 </r>
       <r>     8.4440     0.0000   110.0000 </r>
       <r>     8.6853     0.0000   110.0000 </r>
       <r>     8.9265     0.0000   110.0000 </r>
       <r>     9.1678     0.0000   110.0000 </r>
       <r>     9.4090     0.0000   110.0000 </r>
       <r>     9.6503     0.0000   110.0000 </r>
       <r>     9.8915     0.0000   110.0000 </r>
       <r>    10.1327     0.0000   110.0000 </r>
       <r>    10.3740     0.0000   110.0000 </r>
       <r>    10.6152     0.0000   110.0000 </r>
       <r>    10.8565     0.0000   110.0000 </r>
      </set>
      <set comment="spin 2">
       <r>   -61.5166     0.0000     0.0000 </r>
       <r>   -61.2754     0.0000     0.0000 </r>
       <r>   -61.0341     0.0000     0.0000 </r>
       <r>   -60.7929     0.0000     0.0000 </r>
       <r>   -60.5516     0.0000     0.0000 </r>
       <r>   -60.3104     0.0000     0.0000 </r>
       <r>   -60.0692     0.0000     0.0000 </r>
       <r>   -59.8279     0.0000     0.0000 </r>
       <r>   -59.5867     0.0000     0.0000 </r>
       <r>   -59.3454     0.0000     0.0000 </r>
       <r>   -59.1042     0.0000     0.0000 </r>
       <r>   -58.8629     0.0000     0.0000 </r>
       <r>   -58.6217     0.0000     0.0000 </r>
       <r>   -58.3804     0.0000     0.0000 </r>
       <r>   -58.1392     0.0000     0.0000 </r>
       <r>   -57.8980     0.0000     0.0000 </r>
       <r>   -57.6567     0.0000     0.0000 </r>
       <r>   -57.4155     0.0000     0.0000 </r>
       <r>   -57.1742     0.0000     0.0000 </r>
       <r>   -56.9330     0.0000     0.0000 </r>
       <r>   -56.6917     0.0000     0.0000 </r>
       <r>   -56.4505     0.0000     0.0000 </r>
       <r>   -56.2093     0.0000     0.0000 </r>
       <r>   -55.9680     0.0000     0.0000 </r>
       <r>   -55.7268     0.0000     0.0000 </r>
       <r>   -55.4855     0.0000     0.0000 </r>
       <r>   -55.2443     0.0000     0.0000 </r>
       <r>   -55.0030     0.0000     0.0000 </r>
       <r>   -54.7618     0.0000     0.0000 </r>
       <r>   -54.5205     0.0000     0.0000 </r>
       <r>   -54.2793     0.0000     0.0000 </r>
       <r>   -54.0381     0.0000     0.0000 </r>
       <r>   -53.7968    17.0986     4.1249 </r>
       <r>   -53.5556    29.8770    11.3326 </r>
       <r>   -53.3143     2.7667    12.0000 </r>
       <r>   -53.0731     0.0000    12.0000 </r>
       <r>   -52.8318     0.0000    12.0000 </r>
       <r>   -52.5906     0.0000    12.0000 </r>
       <r>   -52.3494     0.0000    12.0000 </r>
       <r>   -52.1081     0.0000    12.0000 </r>
       <r>   -51.8669     0.0000    12.0000 </r>
       <r>   -51.6256     0.0000    12.0000 </r>
       <r>   -51.3844     0.0000    12.0000 </r>
       <r>   -51.1431     0.0000    12.0000 </r>
       <r>   -50.9019     0.0000    12.0000 </r>
       <r>   -50.6607     0.0000    12.0000 </r>
       <r>   -50.4194     0.0000    12.0000 </r>
       <r>   -50.1782     0.0000    12.0000 </r>
       <r>   -49.9369     0.0000    12.0000 </r>
       <r>   -49.6957     0.0000    12.0000 </r>
       <r>   -49.4544     0.0000    12.0000 </r>
       <r>   -49.2132     0.0000    12.0000 </r>
       <r>   -48.9719     0.0000    12.0000 </r>
       <r>   -48.7307     0.0000    12.0000 </r>
       <r>   -48.4895     0.0000    12.0000 </r>
       <r>   -48.2482     0.0000    12.0000 </r>
       <r>   -48.0070     0.0000    12.0000 </r>
       <r>   -47.7657     0.0000    12.0000 </r>
       <r>   -47.5245     0.0000    12.0000 </r>
       <r>   -47.2832     0.0000    12.0000 </r>
       <r>   -47.0420     0.0000    12.0000 </r>
       <r>   -46.8008     0.0000    12.0000 </r>
       <r>   -46.5595     0.0000    12.0000 </r>
       <r>   -46.3183     0.0000    12.0000 </r>
       <r>   -46.0770     0.0000    12.0000 </r>
       <r>   -45.8358     0.0000    12.0000 </r>
       <r>   -45.5945     0.0000    12.0000 </r>
       <r>   -45.3533     0.0000    12.0000 </r>
       <r>   -45.1120     0.0000    12.0000 </r>
       <r>   -44.8708     0.0000    12.0000 </r>
       <r>   -44.6296     0.0000    12.0000 </r>
       <r>   -44.3883     0.0000    12.0000 </r>
       <r>   -44.1471     0.0000    12.0000 </r>
       <r>   -43.9058     0.0000    12.0000 </r>
       <r>   -43.6646     0.0000    12.0000 </r>
       <r>   -43.4233     0.0000    12.0000 </r>
       <r>   -43.1821     0.0000    12.0000 </r>
       <r>   -42.9409     0.0000    12.0000 </r>
       <r>   -42.6996     0.0000    12.0000 </r>
       <r>   -42.4584     0.0000    12.0000 </r>
       <r>   -42.2171     0.0000    12.0000 </r>
       <r>   -41.9759     0.0000    12.0000 </r>
       <r>   -41.7346     0.0000    12.0000 </r>
       <r>   -41.4934     0.0000    12.0000 </r>
       <r>   -41.2521     0.0000    12.0000 </r>
       <r>   -41.0109     0.0000    12.0000 </r>
       <r>   -40.7697     0.0000    12.0000 </r>
       <r>   -40.5284     0.0000    12.0000 </r>
       <r>   -40.2872     0.0000    12.0000 </r>
       <r>   -40.0459     0.0000    12.0000 </r>
       <r>   -39.8047     0.0000    12.0000 </r>
       <r>   -39.5634     0.0000    12.0000 </r>
       <r>   -39.3222     0.0000    12.0000 </r>
       <r>   -39.0810     0.0000    12.0000 </r>
       <r>   -38.8397     0.0000    12.0000 </r>
       <r>   -38.5985     0.0000    12.0000 </r>
       <r>   -38.3572     0.0000    12.0000 </r>
       <r>   -38.1160     0.0000    12.0000 </r>
       <r>   -37.8747     0.0000    12.0000 </r>
       <r>   -37.6335     0.0000    12.0000 </r>
       <r>   -37.3923     0.0000    12.0000 </r>
       <r>   -37.1510     0.0000    12.0000 </r>
       <r>   -36.9098     0.0000    12.0000 </r>
       <r>   -36.6685     0.0000    12.0000 </r>
       <r>   -36.4273     0.0000    12.0000 </r>
       <r>   -36.1860     0.0000    12.0000 </r>
       <r>   -35.9448     0.0000    12.0000 </r>
       <r>   -35.7035     0.0000    12.0000 </r>
       <r>   -35.4623     0.0000    12.0000 </r>
       <r>   -35.2211     0.0000    12.0000 </r>
       <r>   -34.9798     0.0000    12.0000 </r>
       <r>   -34.7386     0.0000    12.0000 </r>
       <r>   -34.4973     0.0000    12.0000 </r>
       <r>   -34.2561     2.0837    12.5027 </r>
       <r>   -34.0148     2.0614    13.0000 </r>
       <r>   -33.7736     0.0029    13.0007 </r>
       <r>   -33.5324     8.2228    14.9844 </r>
       <r>   -33.2911     4.2099    16.0000 </r>
       <r>   -33.0499     0.0000    16.0000 </r>
       <r>   -32.8086     0.0000    16.0000 </r>
       <r>   -32.5674     0.0000    16.0000 </r>
       <r>   -32.3261     0.0000    16.0000 </r>
       <r>   -32.0849     0.0000    16.0000 </r>
       <r>   -31.8436     0.0000    16.0000 </r>
       <r>   -31.6024     0.0000    16.0000 </r>
       <r>   -31.3612     0.0000    16.0000 </r>
       <r>   -31.1199     0.0000    16.0000 </r>
       <r>   -30.8787     0.0000    16.0000 </r>
       <r>   -30.6374     0.0000    16.0000 </r>
       <r>   -30.3962     0.0000    16.0000 </r>
       <r>   -30.1549     0.0000    16.0000 </r>
       <r>   -29.9137     0.0000    16.0000 </r>
       <r>   -29.6725     0.0000    16.0000 </r>
       <r>   -29.4312     0.0000    16.0000 </r>
       <r>   -29.1900     0.0000    16.0000 </r>
       <r>   -28.9487     0.0000    16.0000 </r>
       <r>   -28.7075     0.0000    16.0000 </r>
       <r>   -28.4662     0.0000    16.0000 </r>
       <r>   -28.2250     0.0000    16.0000 </r>
       <r>   -27.9838     0.0000    16.0000 </r>
       <r>   -27.7425     0.0000    16.0000 </r>
       <r>   -27.5013     0.0000    16.0000 </r>
       <r>   -27.2600     0.0000    16.0000 </r>
       <r>   -27.0188     0.0000    16.0000 </r>
       <r>   -26.7775     0.0000    16.0000 </r>
       <r>   -26.5363     0.0000    16.0000 </r>
       <r>   -26.2950     0.0000    16.0000 </r>
       <r>   -26.0538     0.0000    16.0000 </r>
       <r>   -25.8126     0.0000    16.0000 </r>
       <r>   -25.5713     0.0000    16.0000 </r>
       <r>   -25.3301     0.0000    16.0000 </r>
       <r>   -25.0888     0.0000    16.0000 </r>
       <r>   -24.8476     0.0000    16.0000 </r>
       <r>   -24.6063     0.0000    16.0000 </r>
       <r>   -24.3651     0.0000    16.0000 </r>
       <r>   -24.1239     0.0000    16.0000 </r>
       <r>   -23.8826     0.0000    16.0000 </r>
       <r>   -23.6414     0.0000    16.0000 </r>
       <r>   -23.4001     0.0000    16.0000 </r>
       <r>   -23.1589     0.0000    16.0000 </r>
       <r>   -22.9176     0.0000    16.0000 </r>
       <r>   -22.6764     0.0000    16.0000 </r>
       <r>   -22.4351     0.0000    16.0000 </r>
       <r>   -22.1939     0.0000    16.0000 </r>
       <r>   -21.9527     0.0000    16.0000 </r>
       <r>   -21.7114     0.0000    16.0000 </r>
       <r>   -21.4702     0.0000    16.0000 </r>
       <r>   -21.2289     0.0000    16.0000 </r>
       <r>   -20.9877     0.0000    16.0000 </r>
       <r>   -20.7464     0.0000    16.0000 </r>
       <r>   -20.5052     0.0000    16.0000 </r>
       <r>   -20.2640     0.0000    16.0000 </r>
       <r>   -20.0227     0.0000    16.0000 </r>
       <r>   -19.7815     0.0000    16.0000 </r>
       <r>   -19.5402     0.0000    16.0000 </r>
       <r>   -19.2990     0.0000    16.0000 </r>
       <r>   -19.0577     0.2317    16.0559 </r>
       <r>   -18.8165     2.2999    16.6107 </r>
       <r>   -18.5753     4.7213    17.7497 </r>
       <r>   -18.3340     3.3790    18.5649 </r>
       <r>   -18.0928     4.1487    19.5657 </r>
       <r>   -17.8515     4.4323    20.6350 </r>
       <r>   -17.6103     8.9272    22.7886 </r>
       <r>   -17.3690     8.9825    24.9556 </r>
       <r>   -17.1278     9.5502    27.2595 </r>
       <r>   -16.8865     3.0262    27.9896 </r>
       <r>   -16.6453     0.0433    28.0000 </r>
       <r>   -16.4041     0.9996    28.2411 </r>
       <r>   -16.1628     4.4971    29.3260 </r>
       <r>   -15.9216     4.8044    30.4851 </r>
       <r>   -15.6803     6.3179    32.0092 </r>
       <r>   -15.4391    18.4058    36.4495 </r>
       <r>   -15.1978    12.6509    39.5015 </r>
       <r>   -14.9566     2.0665    40.0000 </r>
       <r>   -14.7154     0.0000    40.0000 </r>
       <r>   -14.4741     0.0000    40.0000 </r>
       <r>   -14.2329     0.0000    40.0000 </r>
       <r>   -13.9916     0.0000    40.0000 </r>
       <r>   -13.7504     0.0000    40.0000 </r>
       <r>   -13.5091     0.0000    40.0000 </r>
       <r>   -13.2679     0.0000    40.0000 </r>
       <r>   -13.0266     0.0000    40.0000 </r>
       <r>   -12.7854     0.0000    40.0000 </r>
       <r>   -12.5442     0.0000    40.0000 </r>
       <r>   -12.3029     0.0000    40.0000 </r>
       <r>   -12.0617     0.0000    40.0000 </r>
       <r>   -11.8204     0.0000    40.0000 </r>
       <r>   -11.5792     0.0000    40.0000 </r>
       <r>   -11.3379     0.0000    40.0000 </r>
       <r>   -11.0967     0.0000    40.0000 </r>
       <r>   -10.8555     0.0000    40.0000 </r>
       <r>   -10.6142     0.0000    40.0000 </r>
       <r>   -10.3730     0.0000    40.0000 </r>
       <r>   -10.1317     0.0000    40.0000 </r>
       <r>    -9.8905     0.0000    40.0000 </r>
       <r>    -9.6492     0.0000    40.0000 </r>
       <r>    -9.4080     0.0000    40.0000 </r>
       <r>    -9.1668     0.0000    40.0000 </r>
       <r>    -8.9255     0.0000    40.0000 </r>
       <r>    -8.6843     0.0000    40.0000 </r>
       <r>    -8.4430     0.0000    40.0000 </r>
       <r>    -8.2018     0.0000    40.0000 </r>
       <r>    -7.9605     0.0000    40.0000 </r>
       <r>    -7.7193     0.0000    40.0000 </r>
       <r>    -7.4780     0.0000    40.0000 </r>
       <r>    -7.2368     0.0000    40.0000 </r>
       <r>    -6.9956     0.0002    40.0001 </r>
       <r>    -6.7543     1.0385    40.2506 </r>
       <r>    -6.5131     1.0366    40.5007 </r>
       <r>    -6.2718     3.0488    41.2362 </r>
       <r>    -6.0306     2.8101    41.9141 </r>
       <r>    -5.7893     3.1488    42.6737 </r>
       <r>    -5.5481     2.7414    43.3351 </r>
       <r>    -5.3069     1.7498    43.7572 </r>
       <r>    -5.0656     6.4676    45.3175 </r>
       <r>    -4.8244    15.0129    48.9392 </r>
       <r>    -4.5831     9.3837    51.2030 </r>
       <r>    -4.3419     5.4730    52.5233 </r>
       <r>    -4.1006     7.7078    54.3828 </r>
       <r>    -3.8594     6.5347    55.9592 </r>
       <r>    -3.6181     8.0388    57.8986 </r>
       <r>    -3.3769     3.3130    58.6978 </r>
       <r>    -3.1357     7.7768    60.5739 </r>
       <r>    -2.8944     4.6662    61.6996 </r>
       <r>    -2.6532     5.0905    62.9276 </r>
       <r>    -2.4119     6.0170    64.3792 </r>
       <r>    -2.1707    13.4256    67.6181 </r>
       <r>    -1.9294    12.5511    70.6459 </r>
       <r>    -1.6882     6.6010    72.2384 </r>
       <r>    -1.4470     6.0413    73.6958 </r>
       <r>    -1.2057     7.2354    75.4413 </r>
       <r>    -0.9645     1.2797    75.7500 </r>
       <r>    -0.7232     0.1045    75.7752 </r>
       <r>    -0.4820     0.9318    76.0000 </r>
       <r>    -0.2407     0.0000    76.0000 </r>
       <r>     0.0005     0.0000    76.0000 </r>
       <r>     0.2418     0.0000    76.0000 </r>
       <r>     0.4830     0.3427    76.0827 </r>
       <r>     0.7242     6.9300    77.7545 </r>
       <r>     0.9655     6.9244    79.4250 </r>
       <r>     1.2067     7.2795    81.1811 </r>
       <r>     1.4480    19.5851    85.9059 </r>
       <r>     1.6892    16.6187    89.9150 </r>
       <r>     1.9305     9.3843    92.1789 </r>
       <r>     2.1717     0.3782    92.2702 </r>
       <r>     2.4129     2.0980    92.7763 </r>
       <r>     2.6542     4.0506    93.7535 </r>
       <r>     2.8954     2.6824    94.4006 </r>
       <r>     3.1367     0.5858    94.5419 </r>
       <r>     3.3779     1.9042    95.0013 </r>
       <r>     3.6192     5.2580    96.2698 </r>
       <r>     3.8604     1.8529    96.7168 </r>
       <r>     4.1016     2.2103    97.2500 </r>
       <r>     4.3429     0.0096    97.2523 </r>
       <r>     4.5841     1.0507    97.5058 </r>
       <r>     4.8254     3.0921    98.2517 </r>
       <r>     5.0666     1.9927    98.7325 </r>
       <r>     5.3079     2.9693    99.4488 </r>
       <r>     5.5491     3.2638   100.2362 </r>
       <r>     5.7904     2.2763   100.7853 </r>
       <r>     6.0316     3.0535   101.5220 </r>
       <r>     6.2728     3.0243   102.2516 </r>
       <r>     6.5141     7.0989   103.9641 </r>
       <r>     6.7553     5.8921   105.3856 </r>
       <r>     6.9966     5.7203   106.7655 </r>
       <r>     7.2378     6.6587   108.3719 </r>
       <r>     7.4791     3.8489   109.3004 </r>
       <r>     7.7203     2.8998   110.0000 </r>
       <r>     7.9615     0.0000   110.0000 </r>
       <r>     8.2028     0.0000   110.0000 </r>
       <r>     8.4440     0.0000   110.0000 </r>
       <r>     8.6853     0.0000   110.0000 </r>
       <r>     8.9265     0.0000   110.0000 </r>
       <r>     9.1678     0.0000   110.0000 </r>
       <r>     9.4090     0.0000   110.0000 </r>
       <r>     9.6503     0.0000   110.0000 </r>
       <r>     9.8915     0.0000   110.0000 </r>
       <r>    10.1327     0.0000   110.0000 </r>
       <r>    10.3740     0.0000   110.0000 </r>
       <r>    10.6152     0.0000   110.0000 </r>
       <r>    10.8565     0.0000   110.0000 </r>
      </set>
     </set>
    </array>
   </total>
  </dos>
 </calculation>
 <structure name="finalpos" >
  <crystal>
   <varray name="basis" >
    <v>       3.88680817       0.00000000       0.00000000 </v>
    <v>       0.00000000       3.88680817       0.00000000 </v>
    <v>       0.00000000       0.00000000      30.54723268 </v>
   </varray>
   <i name="volume">    461.48552838 </i>
   <varray name="rec_basis" >
    <v>       0.25728051       0.00000000       0.00000000 </v>
    <v>       0.00000000       0.25728051       0.00000000 </v>
    <v>       0.00000000       0.00000000       0.03273619 </v>
   </varray>
  </crystal>
  <varray name="positions" >
   <v>       0.50000000       0.50000000       0.06361964 </v>
   <v>       0.50000000       0.50000000       0.19085893 </v>
   <v>       0.50000000       0.50000000       0.31852341 </v>
   <v>       0.50000000       0.50000000       0.44076390 </v>
   <v>       0.00000000       0.00000000       0.00000000 </v>
   <v>       0.00000000       0.00000000       0.12723929 </v>
   <v>       0.00000000       0.00000000       0.25556037 </v>
   <v>       0.00000000       0.00000000       0.38494139 </v>
   <v>       0.50000000       0.00000000       0.00000000 </v>
   <v>       0.50000000       0.00000000       0.12723929 </v>
   <v>       0.50000000       0.00000000       0.25524104 </v>
   <v>       0.50000000       0.00000000       0.38439581 </v>
   <v>       0.00000000       0.50000000       0.00000000 </v>
   <v>       0.00000000       0.50000000       0.12723929 </v>
   <v>       0.00000000       0.50000000       0.25524104 </v>
   <v>       0.00000000       0.50000000       0.38439581 </v>
   <v>       0.00000000       0.00000000       0.06361964 </v>
   <v>       0.00000000       0.00000000       0.19085893 </v>
   <v>       0.00000000       0.00000000       0.32020575 </v>
   <v>       0.00000000       0.00000000       0.44865975 </v>
  </varray>
  <varray name="selective"  type="logical" >
   <v type="logical" >  F  F  F </v>
   <v type="logical" >  F  F  F </v>
   <v type="logical" >  T  T  T </v>
   <v type="logical" >  T  T  T </v>
   <v type="logical" >  F  F  F </v>
   <v type="logical" >  F  F  F </v>
   <v type="logical" >  T  T  T </v>
   <v type="logical" >  T  T  T </v>
   <v type="logical" >  F  F  F </v>
   <v type="logical" >  F  F  F </v>
   <v type="logical" >  T  T  T </v>
   <v type="logical" >  T  T  T </v>
   <v type="logical" >  F  F  F </v>
   <v type="logical" >  F  F  F </v>
   <v type="logical" >  T  T  T </v>
   <v type="logical" >  T  T  T </v>
   <v type="logical" >  F  F  F </v>
   <v type="logical" >  F  F  F </v>
   <v type="logical" >  T  T  T </v>
   <v type="logical" >  T  T  T </v>
  </varray>
  <nose>
   <v>      -3.00000000       0.00000000       0.00010000       0.00010000 </v>
  </nose>
 </structure>
</modeling>
