unknown system                          
           1
     3.886808    0.000000    0.000000
     0.000000    3.886808    0.000000
     0.000000    0.000000   30.547233
   Sr   Fe   O 
   4   4  12
Direct configuration=     1
   0.50000000  0.50000000  0.06361964
   0.50000000  0.50000000  0.19085893
   0.50000000  0.50000000  0.31852341
   0.50000000  0.50000000  0.44076390
   0.00000000  0.00000000  0.00000000
   0.00000000  0.00000000  0.12723929
   0.00000000  0.00000000  0.25556037
   0.00000000  0.00000000  0.38494139
   0.50000000  0.00000000  0.00000000
   0.50000000  0.00000000  0.12723929
   0.50000000  0.00000000  0.25524104
   0.50000000  0.00000000  0.38439581
   0.00000000  0.50000000  0.00000000
   0.00000000  0.50000000  0.12723929
   0.00000000  0.50000000  0.25524104
   0.00000000  0.50000000  0.38439581
   0.00000000  0.00000000  0.06361964
   0.00000000  0.00000000  0.19085893
   0.00000000  0.00000000  0.32020575
   0.00000000  0.00000000  0.44865975
