  38  38   0   0
  0.1534737E+03  0.1800000E-08  0.1800000E-08  0.1800000E-08  0.1000000E-15
  1.000000000000000E-004
  CAR 
 Pt cube particle                        
      1.68784679    -14.59066656  301     -4.20134333      1.00000000
    -14.591  0.0000E+00  0.0000E+00
    -14.536  0.0000E+00  0.0000E+00
    -14.482  0.0000E+00  0.0000E+00
    -14.428  0.0000E+00  0.0000E+00
    -14.374  0.0000E+00  0.0000E+00
    -14.319  0.0000E+00  0.0000E+00
    -14.265  0.0000E+00  0.0000E+00
    -14.211 -0.1332E-28 -0.7227E-30
    -14.157 -0.9565E-27 -0.5263E-28
    -14.102 -0.5991E-25 -0.3304E-26
    -14.048 -0.3234E-23 -0.1788E-24
    -13.994 -0.1504E-21 -0.8338E-23
    -13.940 -0.6022E-20 -0.3351E-21
    -13.885 -0.2077E-18 -0.1161E-19
    -13.831 -0.6170E-17 -0.3464E-18
    -13.777 -0.1577E-15 -0.8905E-17
    -13.722 -0.3357E-14 -0.1911E-15
    -13.668 -0.6342E-13 -0.3633E-14
    -13.614 -0.1028E-11 -0.5940E-13
    -13.560 -0.1430E-10 -0.8355E-12
    -13.505 -0.1708E-09 -0.1010E-10
    -13.451 -0.1748E-08 -0.1050E-09
    -13.397 -0.1532E-07 -0.9364E-09
    -13.343 -0.1148E-06 -0.7165E-08
    -13.288 -0.7334E-06 -0.4696E-07
    -13.234 -0.3986E-05 -0.2633E-06
    -13.180 -0.1836E-04 -0.1259E-05
    -13.126 -0.7120E-04 -0.5123E-05
    -13.071 -0.2306E-03 -0.1764E-04
    -13.017 -0.6147E-03 -0.5099E-04
    -12.963 -0.1310E-02 -0.1221E-03
    -12.909 -0.2091E-02 -0.2355E-03
    -12.854 -0.1976E-02 -0.3428E-03
    -12.800  0.9122E-03 -0.2933E-03
    -12.746  0.8443E-02  0.1649E-03
    -12.692  0.2048E-01  0.1276E-02
    -12.637  0.3338E-01  0.3087E-02
    -12.583  0.4124E-01  0.5325E-02
    -12.529  0.3985E-01  0.7487E-02
    -12.474  0.2997E-01  0.9113E-02
    -12.420  0.1676E-01  0.1002E-01
    -12.366  0.5788E-02  0.1034E-01
    -12.312 -0.3139E-03  0.1032E-01
    -12.257 -0.2196E-02  0.1020E-01
    -12.203 -0.1900E-02  0.1010E-01
    -12.149 -0.1084E-02  0.1004E-01
    -12.095 -0.4756E-03  0.1001E-01
    -12.040 -0.1685E-03  0.1000E-01
    -11.986 -0.4939E-04  0.1000E-01
    -11.932 -0.1221E-04  0.1000E-01
    -11.878 -0.3202E-05  0.1000E-01
    -11.823 -0.4610E-05  0.1000E-01
    -11.769 -0.2140E-04  0.9999E-02
    -11.715 -0.9235E-04  0.9994E-02
    -11.661 -0.3357E-03  0.9975E-02
    -11.606 -0.1015E-02  0.9920E-02
    -11.552 -0.2503E-02  0.9784E-02
    -11.498 -0.4853E-02  0.9521E-02
    -11.443 -0.6709E-02  0.9157E-02
    -11.389 -0.4072E-02  0.8936E-02
    -11.335  0.9206E-02  0.9436E-02
    -11.281  0.3727E-01  0.1146E-01
    -11.226  0.7600E-01  0.1558E-01
    -11.172  0.1109E+00  0.2160E-01
    -11.118  0.1244E+00  0.2835E-01
    -11.064  0.1090E+00  0.3427E-01
    -11.009  0.7346E-01  0.3825E-01
    -10.955  0.3708E-01  0.4026E-01
    -10.901  0.1606E-01  0.4114E-01
    -10.847  0.1451E-01  0.4192E-01
    -10.792  0.2485E-01  0.4327E-01
    -10.738  0.3480E-01  0.4516E-01
    -10.684  0.3499E-01  0.4706E-01
    -10.630  0.2329E-01  0.4832E-01
    -10.575  0.4762E-02  0.4858E-01
    -10.521 -0.1031E-01  0.4802E-01
    -10.467 -0.7878E-02  0.4759E-01
    -10.413  0.2719E-01  0.4907E-01
    -10.358  0.1026E+00  0.5463E-01
    -10.304  0.2062E+00  0.6582E-01
    -10.250  0.3024E+00  0.8223E-01
    -10.195  0.3477E+00  0.1011E+00
    -10.141  0.3193E+00  0.1184E+00
    -10.087  0.2323E+00  0.1310E+00
    -10.033  0.1311E+00  0.1381E+00
     -9.978  0.6216E-01  0.1415E+00
     -9.924  0.4814E-01  0.1441E+00
     -9.870  0.7985E-01  0.1485E+00
     -9.816  0.1258E+00  0.1553E+00
     -9.761  0.1535E+00  0.1636E+00
     -9.707  0.1490E+00  0.1717E+00
     -9.653  0.1216E+00  0.1783E+00
     -9.599  0.9011E-01  0.1832E+00
     -9.544  0.6631E-01  0.1868E+00
     -9.490  0.5417E-01  0.1897E+00
     -9.436  0.6271E-01  0.1931E+00
     -9.382  0.1122E+00  0.1992E+00
     -9.327  0.2182E+00  0.2111E+00
     -9.273  0.3653E+00  0.2309E+00
     -9.219  0.5021E+00  0.2581E+00
     -9.164  0.5707E+00  0.2891E+00
     -9.110  0.5503E+00  0.3190E+00
     -9.056  0.4714E+00  0.3445E+00
     -9.002  0.3861E+00  0.3655E+00
     -8.947  0.3244E+00  0.3831E+00
     -8.893  0.2796E+00  0.3983E+00
     -8.839  0.2304E+00  0.4108E+00
     -8.785  0.1707E+00  0.4200E+00
     -8.730  0.1180E+00  0.4264E+00
     -8.676  0.9896E-01  0.4318E+00
     -8.622  0.1262E+00  0.4387E+00
     -8.568  0.1848E+00  0.4487E+00
     -8.513  0.2372E+00  0.4616E+00
     -8.459  0.2474E+00  0.4750E+00
     -8.405  0.2086E+00  0.4863E+00
     -8.351  0.1516E+00  0.4945E+00
     -8.296  0.1244E+00  0.5013E+00
     -8.242  0.1569E+00  0.5098E+00
     -8.188  0.2409E+00  0.5229E+00
     -8.134  0.3384E+00  0.5412E+00
     -8.079  0.4095E+00  0.5634E+00
     -8.025  0.4370E+00  0.5872E+00
     -7.971  0.4311E+00  0.6106E+00
     -7.916  0.4164E+00  0.6331E+00
     -7.862  0.4125E+00  0.6555E+00
     -7.808  0.4193E+00  0.6783E+00
     -7.754  0.4189E+00  0.7010E+00
     -7.699  0.3909E+00  0.7222E+00
     -7.645  0.3289E+00  0.7401E+00
     -7.591  0.2433E+00  0.7533E+00
     -7.537  0.1540E+00  0.7616E+00
     -7.482  0.8333E-01  0.7661E+00
     -7.428  0.5409E-01  0.7691E+00
     -7.374  0.8283E-01  0.7736E+00
     -7.320  0.1665E+00  0.7826E+00
     -7.265  0.2735E+00  0.7975E+00
     -7.211  0.3544E+00  0.8167E+00
     -7.157  0.3719E+00  0.8369E+00
     -7.103  0.3249E+00  0.8545E+00
     -7.048  0.2467E+00  0.8679E+00
     -6.994  0.1771E+00  0.8775E+00
     -6.940  0.1365E+00  0.8849E+00
     -6.886  0.1236E+00  0.8916E+00
     -6.831  0.1313E+00  0.8987E+00
     -6.777  0.1589E+00  0.9073E+00
     -6.723  0.2095E+00  0.9187E+00
     -6.668  0.2794E+00  0.9339E+00
     -6.614  0.3541E+00  0.9531E+00
     -6.560  0.4129E+00  0.9755E+00
     -6.506  0.4402E+00  0.9994E+00
     -6.451  0.4325E+00  0.1023E+01
     -6.397  0.3984E+00  0.1044E+01
     -6.343  0.3533E+00  0.1064E+01
     -6.289  0.3153E+00  0.1081E+01
     -6.234  0.2988E+00  0.1097E+01
     -6.180  0.3057E+00  0.1114E+01
     -6.126  0.3203E+00  0.1131E+01
     -6.072  0.3179E+00  0.1148E+01
     -6.017  0.2835E+00  0.1164E+01
     -5.963  0.2241E+00  0.1176E+01
     -5.909  0.1625E+00  0.1185E+01
     -5.855  0.1203E+00  0.1191E+01
     -5.800  0.1064E+00  0.1197E+01
     -5.746  0.1204E+00  0.1203E+01
     -5.692  0.1625E+00  0.1212E+01
     -5.637  0.2404E+00  0.1225E+01
     -5.583  0.3614E+00  0.1245E+01
     -5.529  0.5113E+00  0.1273E+01
     -5.475  0.6391E+00  0.1307E+01
     -5.420  0.6753E+00  0.1344E+01
     -5.366  0.5822E+00  0.1376E+01
     -5.312  0.3924E+00  0.1397E+01
     -5.258  0.1957E+00  0.1407E+01
     -5.203  0.8484E-01  0.1412E+01
     -5.149  0.1061E+00  0.1418E+01
     -5.095  0.2422E+00  0.1431E+01
     -5.041  0.4274E+00  0.1454E+01
     -4.986  0.5801E+00  0.1486E+01
     -4.932  0.6447E+00  0.1521E+01
     -4.878  0.6235E+00  0.1554E+01
     -4.824  0.5753E+00  0.1586E+01
     -4.769  0.5713E+00  0.1617E+01
     -4.715  0.6371E+00  0.1651E+01
     -4.661  0.7307E+00  0.1691E+01
     -4.607  0.7778E+00  0.1733E+01
     -4.552  0.7334E+00  0.1773E+01
     -4.498  0.6107E+00  0.1806E+01
     -4.444  0.4583E+00  0.1831E+01
     -4.389  0.3241E+00  0.1848E+01
     -4.335  0.2423E+00  0.1862E+01
     -4.281  0.2339E+00  0.1874E+01
     -4.227  0.2991E+00  0.1890E+01
     -4.172  0.4035E+00  0.1912E+01
     -4.118  0.4854E+00  0.1939E+01
     -4.064  0.4898E+00  0.1965E+01
     -4.010  0.4045E+00  0.1987E+01
     -3.955  0.2681E+00  0.2002E+01
     -3.901  0.1443E+00  0.2010E+01
     -3.847  0.8385E-01  0.2014E+01
     -3.793  0.9870E-01  0.2020E+01
     -3.738  0.1596E+00  0.2028E+01
     -3.684  0.2162E+00  0.2040E+01
     -3.630  0.2282E+00  0.2052E+01
     -3.576  0.1874E+00  0.2062E+01
     -3.521  0.1171E+00  0.2069E+01
     -3.467  0.5005E-01  0.2072E+01
     -3.413  0.7083E-02  0.2072E+01
     -3.358 -0.1027E-01  0.2071E+01
     -3.304 -0.1176E-01  0.2071E+01
     -3.250 -0.7709E-02  0.2070E+01
     -3.196 -0.3875E-02  0.2070E+01
     -3.141 -0.1911E-02  0.2070E+01
     -3.087 -0.1727E-02  0.2070E+01
     -3.033 -0.3018E-02  0.2070E+01
     -2.979 -0.5333E-02  0.2069E+01
     -2.924 -0.7090E-02  0.2069E+01
     -2.870 -0.4407E-02  0.2069E+01
     -2.816  0.8566E-02  0.2069E+01
     -2.762  0.3628E-01  0.2071E+01
     -2.707  0.7644E-01  0.2075E+01
     -2.653  0.1177E+00  0.2082E+01
     -2.599  0.1459E+00  0.2090E+01
     -2.545  0.1560E+00  0.2098E+01
     -2.490  0.1583E+00  0.2107E+01
     -2.436  0.1697E+00  0.2116E+01
     -2.382  0.1970E+00  0.2127E+01
     -2.328  0.2285E+00  0.2139E+01
     -2.273  0.2440E+00  0.2152E+01
     -2.219  0.2313E+00  0.2165E+01
     -2.165  0.1931E+00  0.2175E+01
     -2.110  0.1412E+00  0.2183E+01
     -2.056  0.8836E-01  0.2188E+01
     -2.002  0.4369E-01  0.2190E+01
     -1.948  0.1283E-01  0.2191E+01
     -1.893 -0.1947E-02  0.2191E+01
     -1.839 -0.1705E-02  0.2191E+01
     -1.785  0.9482E-02  0.2191E+01
     -1.731  0.2508E-01  0.2193E+01
     -1.676  0.3745E-01  0.2195E+01
     -1.622  0.4071E-01  0.2197E+01
     -1.568  0.3388E-01  0.2199E+01
     -1.514  0.2110E-01  0.2200E+01
     -1.459  0.8200E-02  0.2200E+01
     -1.405 -0.1394E-02  0.2200E+01
     -1.351 -0.7763E-02  0.2200E+01
     -1.297 -0.1190E-01  0.2199E+01
     -1.242 -0.1159E-01  0.2198E+01
     -1.188  0.7488E-03  0.2198E+01
     -1.134  0.3441E-01  0.2200E+01
     -1.080  0.9094E-01  0.2205E+01
     -1.025  0.1555E+00  0.2214E+01
     -0.971  0.2002E+00  0.2225E+01
     -0.917  0.2016E+00  0.2236E+01
     -0.862  0.1586E+00  0.2244E+01
     -0.808  0.9306E-01  0.2249E+01
     -0.754  0.3360E-01  0.2251E+01
     -0.700 -0.1957E-02  0.2251E+01
     -0.645 -0.1038E-01  0.2250E+01
     -0.591  0.3476E-02  0.2251E+01
     -0.537  0.3248E-01  0.2252E+01
     -0.483  0.6754E-01  0.2256E+01
     -0.428  0.9692E-01  0.2261E+01
     -0.374  0.1097E+00  0.2267E+01
     -0.320  0.1014E+00  0.2273E+01
     -0.266  0.7691E-01  0.2277E+01
     -0.211  0.4668E-01  0.2279E+01
     -0.157  0.2075E-01  0.2280E+01
     -0.103  0.4285E-02  0.2281E+01
     -0.049 -0.2969E-02  0.2281E+01
      0.006 -0.4282E-02  0.2280E+01
      0.060 -0.3135E-02  0.2280E+01
      0.114 -0.1691E-02  0.2280E+01
      0.169 -0.7296E-03  0.2280E+01
      0.223 -0.2597E-03  0.2280E+01
      0.277 -0.7740E-04  0.2280E+01
      0.331 -0.1948E-04  0.2280E+01
      0.386 -0.4159E-05  0.2280E+01
      0.440 -0.7562E-06  0.2280E+01
      0.494 -0.1174E-06  0.2280E+01
      0.548 -0.1557E-07  0.2280E+01
      0.603 -0.1769E-08  0.2280E+01
      0.657 -0.1723E-09  0.2280E+01
      0.711 -0.1439E-10  0.2280E+01
      0.765 -0.1032E-11  0.2280E+01
      0.820 -0.6367E-13  0.2280E+01
      0.874 -0.3356E-14  0.2280E+01
      0.928 -0.1637E-15  0.2280E+01
      0.982  0.0000E+00  0.2280E+01
      1.037  0.0000E+00  0.2280E+01
      1.091  0.0000E+00  0.2280E+01
      1.145  0.0000E+00  0.2280E+01
      1.199  0.0000E+00  0.2280E+01
      1.254  0.0000E+00  0.2280E+01
      1.308  0.0000E+00  0.2280E+01
      1.362  0.0000E+00  0.2280E+01
      1.417  0.0000E+00  0.2280E+01
      1.471  0.0000E+00  0.2280E+01
      1.525  0.0000E+00  0.2280E+01
      1.579  0.0000E+00  0.2280E+01
      1.634  0.0000E+00  0.2280E+01
      1.688  0.0000E+00  0.2280E+01
