   38   38  200    1
  0.1534737E+03  0.1800000E-08  0.1800000E-08  0.1800000E-08  0.1000000E-15
  1.000000000000000E-004
  CAR 
 Pt cube particle                        
    380      1    228
 
  0.0000000E+00  0.0000000E+00  0.0000000E+00  0.1000000E+01
    1      -12.590667   1.000000
    2      -11.145750   1.000000
    3      -11.145407   1.000000
    4      -11.145286   1.000000
    5      -10.738755   1.000000
    6      -10.250793   1.000000
    7      -10.248408   1.000000
    8      -10.247528   1.000000
    9      -10.247458   1.000000
   10      -10.242258   1.000000
   11      -10.207437   1.000000
   12      -10.159193   1.000000
   13      -10.157420   1.000000
   14      -10.156631   1.000000
   15       -9.794525   1.000000
   16       -9.794426   1.000000
   17       -9.793445   1.000000
   18       -9.759515   1.000000
   19       -9.521040   1.000000
   20       -9.519690   1.000000
   21       -9.260385   1.000000
   22       -9.260079   1.000000
   23       -9.259688   1.000000
   24       -9.227762   1.000000
   25       -9.227571   1.000000
   26       -9.227527   1.000000
   27       -9.183138   1.000000
   28       -9.182788   1.000000
   29       -9.181815   1.000000
   30       -9.154532   1.000000
   31       -9.154277   1.000000
   32       -9.152557   1.000000
   33       -9.139392   1.000000
   34       -9.138041   1.000000
   35       -9.137828   1.000000
   36       -8.966441   1.000000
   37       -8.966097   1.000000
   38       -8.934070   1.000000
   39       -8.934021   1.000000
   40       -8.933777   1.000000
   41       -8.914552   1.000000
   42       -8.805649   1.000000
   43       -8.805345   1.000000
   44       -8.589751   1.000000
   45       -8.511302   1.000000
   46       -8.510593   1.000000
   47       -8.509404   1.000000
   48       -8.466036   1.000000
   49       -8.464647   1.000000
   50       -8.464009   1.000000
   51       -8.161832   1.000000
   52       -8.159841   1.000000
   53       -8.156294   1.000000
   54       -8.153169   1.000000
   55       -8.151837   1.000000
   56       -8.150606   1.000000
   57       -8.061769   1.000000
   58       -8.060090   1.000000
   59       -8.004385   1.000000
   60       -8.003706   1.000000
   61       -8.003394   1.000000
   62       -7.991124   1.000000
   63       -7.985764   1.000000
   64       -7.874169   1.000000
   65       -7.874052   1.000000
   66       -7.873712   1.000000
   67       -7.838794   1.000000
   68       -7.772855   1.000000
   69       -7.744764   1.000000
   70       -7.742691   1.000000
   71       -7.741666   1.000000
   72       -7.739625   1.000000
   73       -7.737634   1.000000
   74       -7.737537   1.000000
   75       -7.587257   1.000000
   76       -7.583640   1.000000
   77       -7.578844   1.000000
   78       -7.258673   1.000000
   79       -7.257785   1.000000
   80       -7.257423   1.000000
   81       -7.228397   1.000000
   82       -7.219521   1.000000
   83       -7.194621   1.000000
   84       -7.190128   1.000000
   85       -7.150527   1.000000
   86       -7.142914   1.000000
   87       -7.138817   1.000000
   88       -6.937065   1.000000
   89       -6.931093   1.000000
   90       -6.928360   1.000000
   91       -6.735432   1.000000
   92       -6.733828   1.000000
   93       -6.731090   1.000000
   94       -6.617306   1.000000
   95       -6.615786   1.000000
   96       -6.611995   1.000000
   97       -6.552496   1.000000
   98       -6.551688   1.000000
   99       -6.549789   1.000000
  100       -6.523119   1.000000
  101       -6.521599   1.000000
  102       -6.520530   1.000000
  103       -6.412480   1.000000
  104       -6.409672   1.000000
  105       -6.404468   1.000000
  106       -6.358340   1.000000
  107       -6.358255   1.000000
  108       -6.357751   1.000000
  109       -6.290152   1.000000
  110       -6.191043   1.000000
  111       -6.185897   1.000000
  112       -6.183215   1.000000
  113       -6.097898   1.000000
  114       -6.096797   1.000000
  115       -6.096742   1.000000
  116       -6.045817   1.000000
  117       -6.044633   1.000000
  118       -6.044588   1.000000
  119       -5.864353   1.000000
  120       -5.857279   1.000000
  121       -5.701201   1.000000
  122       -5.697563   1.000000
  123       -5.617568   1.000000
  124       -5.616800   1.000000
  125       -5.614942   1.000000
  126       -5.479614   1.000000
  127       -5.479440   1.000000
  128       -5.479223   1.000000
  129       -5.452405   1.000000
  130       -5.449536   1.000000
  131       -5.448198   1.000000
  132       -5.444307   1.000000
  133       -5.442926   1.000000
  134       -5.442806   1.000000
  135       -5.426209   1.000000
  136       -5.423730   1.000000
  137       -5.419229   1.000000
  138       -5.418917   1.000000
  139       -5.418337   1.000000
  140       -5.418039   1.000000
  141       -5.410552   1.000000
  142       -5.073237   1.000000
  143       -5.041404   1.000000
  144       -5.040543   1.000000
  145       -5.039530   1.000000
  146       -5.006466   1.000000
  147       -5.004707   1.000000
  148       -4.991785   1.000000
  149       -4.990436   1.000000
  150       -4.990045   1.000000
  151       -4.961507   1.000001
  152       -4.960360   1.000001
  153       -4.958675   1.000001
  154       -4.917463   1.000003
  155       -4.917253   1.000003
  156       -4.917201   1.000003
  157       -4.869651   1.000012
  158       -4.868348   1.000013
  159       -4.868052   1.000013
  160       -4.830537   1.000040
  161       -4.829860   1.000041
  162       -4.700873   1.001170
  163       -4.688489   1.001536
  164       -4.688053   1.001550
  165       -4.685189   1.001649
  166       -4.671433   1.002200
  167       -4.644587   1.003740
  168       -4.643726   1.003801
  169       -4.641580   1.003958
  170       -4.640497   1.004039
  171       -4.640320   1.004053
  172       -4.640150   1.004066
  173       -4.635268   1.004450
  174       -4.633861   1.004566
  175       -4.616278   1.006234
  176       -4.613866   1.006496
  177       -4.613379   1.006550
  178       -4.611730   1.006735
  179       -4.607178   1.007267
  180       -4.487574   1.030579
  181       -4.487097   1.030674
  182       -4.486633   1.030766
  183       -4.440934   1.035343
  184       -4.440634   1.035330
  185       -4.440473   1.035322
  186       -4.381010   1.011107
  187       -4.375069   1.005581
  188       -4.175489   0.391606
  189       -4.172793   0.380546
  190       -4.171283   0.374384
  191       -4.156826   0.316706
  192       -4.155009   0.309658
  193       -4.154642   0.308239
  194       -4.153423   0.303542
  195       -4.089520   0.099175
  196       -4.088337   0.096295
  197       -4.084168   0.086424
  198       -4.051288   0.023790
  199       -4.049389   0.020971
  200       -4.045962   0.016098
  201       -4.021497  -0.011264
  202       -3.710994  -0.001433
  203       -3.707995  -0.001342
  204       -3.703025  -0.001202
  205       -3.654526  -0.000382
  206       -3.652025  -0.000359
  207       -3.650688  -0.000347
  208       -2.677976   0.000000
  209       -2.588571   0.000000
  210       -2.585638   0.000000
  211       -2.584403   0.000000
  212       -2.366318   0.000000
  213       -2.365701   0.000000
  214       -2.364394   0.000000
  215       -2.277940   0.000000
  216       -2.275384   0.000000
  217       -2.270912   0.000000
  218       -2.135810   0.000000
  219       -2.134199   0.000000
  220       -1.664674   0.000000
  221       -0.986401   0.000000
  222       -0.979783   0.000000
  223       -0.976919   0.000000
  224       -0.957706   0.000000
  225       -0.943979   0.000000
  226       -0.445598   0.000000
  227       -0.417939   0.000000
  228       -0.312153   0.000000
