 running on    8 total cores
 distrk:  each k-point on    8 cores,    1 groups
 distr:  one band on    4 cores,    2 groups
 using from now: INCAR     
 vasp.5.4.1 24Jun15 (build Jan 06 2016 13:19:48) gamma-only                     
  
 POSCAR found :  1 types and      38 ions
 scaLAPACK will be used
 LDA part: xc-table for Ceperly-Alder, standard interpolation
 POSCAR found :  1 types and      38 ions
 POSCAR, INCAR and KPOINTS ok, starting setup
 WARNING: small aliasing (wrap around) errors must be expected
 FFT: planning ...
 WAVECAR not read
 entering main loop
       N       E                     dE             d eps       ncg     rms          rms(c)
RMM:   1     0.469984103008E+04    0.46998E+04   -0.69566E+04   228   0.680E+02
RMM:   2     0.267580465673E+04   -0.20240E+04   -0.22412E+04   228   0.168E+02
RMM:   3     0.175547970753E+04   -0.92032E+03   -0.12063E+04   228   0.121E+02
RMM:   4     0.103983372887E+04   -0.71565E+03   -0.77073E+03   228   0.119E+02
RMM:   5     0.583382338339E+03   -0.45645E+03   -0.42432E+03   228   0.889E+01
RMM:   6     0.276587208713E+03   -0.30680E+03   -0.26219E+03   228   0.843E+01
RMM:   7     0.104547745529E+03   -0.17204E+03   -0.14876E+03   228   0.626E+01
RMM:   8    -0.148118043028E+02   -0.11936E+03   -0.96000E+02   228   0.671E+01
RMM:   9    -0.119921732074E+03   -0.10511E+03   -0.97749E+02   638   0.434E+01
RMM:  10    -0.162543587102E+03   -0.42622E+02   -0.40887E+02   714   0.151E+01
RMM:  11    -0.182724278099E+03   -0.20181E+02   -0.17030E+02   741   0.749E+00
RMM:  12    -0.191480851746E+03   -0.87566E+01   -0.74851E+01   750   0.423E+00    0.213E+01
RMM:  13    -0.182774934503E+03    0.87059E+01   -0.61292E+01   505   0.176E+01    0.829E+00
RMM:  14    -0.185088812355E+03   -0.23139E+01   -0.36630E+01   564   0.863E+00    0.608E+00
RMM:  15    -0.185798354813E+03   -0.70954E+00   -0.14545E+01   617   0.421E+00    0.425E+00
RMM:  16    -0.186408830856E+03   -0.61048E+00   -0.69084E+00   603   0.247E+00    0.343E+00
RMM:  17    -0.186694733053E+03   -0.28590E+00   -0.30873E+00   572   0.177E+00    0.275E+00
RMM:  18    -0.186928267281E+03   -0.23353E+00   -0.17176E+00   592   0.125E+00    0.241E+00
RMM:  19    -0.187011990274E+03   -0.83723E-01   -0.96468E-01   573   0.109E+00    0.186E+00
RMM:  20    -0.187040439464E+03   -0.28449E-01   -0.37538E-01   554   0.813E-01    0.136E+00
RMM:  21    -0.187080831642E+03   -0.40392E-01   -0.23240E-01   542   0.557E-01    0.111E+00
RMM:  22    -0.187088657913E+03   -0.78263E-02   -0.72321E-02   540   0.371E-01    0.816E-01
RMM:  23    -0.187112337268E+03   -0.23679E-01   -0.94019E-02   540   0.282E-01    0.783E-01
RMM:  24    -0.187118655193E+03   -0.63179E-02   -0.86076E-02   510   0.272E-01    0.544E-01
RMM:  25    -0.187120032892E+03   -0.13777E-02   -0.27943E-02   528   0.172E-01    0.401E-01
RMM:  26    -0.187119494706E+03    0.53819E-03   -0.11661E-02   494   0.180E-01    0.406E-01
RMM:  27    -0.187115002023E+03    0.44927E-02   -0.65559E-03   474   0.184E-01    0.268E-01
RMM:  28    -0.187113734119E+03    0.12679E-02   -0.24634E-03   479   0.110E-01    0.142E-01
RMM:  29    -0.187113939635E+03   -0.20552E-03   -0.64694E-04   386   0.577E-02    0.993E-02
RMM:  30    -0.187114455043E+03   -0.51541E-03   -0.16867E-04   280   0.444E-02    0.568E-02
RMM:  31    -0.187115789305E+03   -0.13343E-02   -0.17933E-04   281   0.410E-02    0.418E-02
RMM:  32    -0.187117127884E+03   -0.13386E-02   -0.16355E-04   278   0.314E-02    0.317E-02
RMM:  33    -0.187118131657E+03   -0.10038E-02   -0.11731E-04   264   0.238E-02    0.257E-02
RMM:  34    -0.187119333130E+03   -0.12015E-02   -0.17982E-04   282   0.220E-02    0.219E-02
RMM:  35    -0.187120400516E+03   -0.10674E-02   -0.20249E-04   290   0.213E-02    0.147E-02
RMM:  36    -0.187121212182E+03   -0.81167E-03   -0.17612E-04   281   0.195E-02    0.158E-02
RMM:  37    -0.187121853411E+03   -0.64123E-03   -0.22069E-04   294   0.199E-02    0.111E-02
RMM:  38    -0.187122029692E+03   -0.17628E-03   -0.87662E-05   240   0.156E-02    0.963E-03
RMM:  39    -0.187122100483E+03   -0.70791E-04   -0.46570E-05   216   0.129E-02
   1 F= -.18712210E+03 E0= -.18708087E+03  d E =-.187122E+03
 curvature:   0.00 expect dE= 0.000E+00 dE for cont linesearch  0.000E+00
 trial: gam= 0.00000 g(F)=  0.250E-01 g(S)=  0.000E+00 ort = 0.000E+00 (trialstep = 0.100E+01)
 search vector abs. value=  0.250E-01
 bond charge predicted
       N       E                     dE             d eps       ncg     rms          rms(c)
RMM:   1    -0.187142317783E+03   -0.20288E-01   -0.14298E+00   456   0.212E+00    0.160E-01
RMM:   2    -0.187145746421E+03   -0.34286E-02   -0.29982E-02   547   0.356E-01    0.201E-01
RMM:   3    -0.187145760482E+03   -0.14061E-04   -0.31167E-03   550   0.120E-01    0.155E-01
RMM:   4    -0.187145512989E+03    0.24749E-03   -0.34750E-04   303   0.461E-02    0.120E-01
RMM:   5    -0.187145285286E+03    0.22770E-03   -0.14373E-04   253   0.431E-02    0.555E-02
RMM:   6    -0.187145178294E+03    0.10699E-03   -0.32331E-04   288   0.432E-02    0.572E-02
RMM:   7    -0.187145124109E+03    0.54185E-04   -0.16747E-04   249   0.451E-02
   2 F= -.18714512E+03 E0= -.18710359E+03  d E =-.230236E-01
 ZBRENT: can't locate minimum, use default step
 trial-energy change:   -0.023024  1 .order   -0.023038   -0.024993   -0.021083
 step:   4.0000(harm=  6.3923)  dis= 0.02611  next Energy=  -187.201981 (dE=-0.799E-01)
 bond charge predicted
       N       E                     dE             d eps       ncg     rms          rms(c)
RMM:   1    -0.187165914105E+03   -0.20736E-01   -0.12861E+01   457   0.639E+00    0.560E-01
RMM:   2    -0.187229187309E+03   -0.63273E-01   -0.29486E-01   519   0.120E+00    0.162E+00
RMM:   3    -0.187194983954E+03    0.34203E-01   -0.44047E-02   572   0.440E-01    0.386E-01
RMM:   4    -0.187192575578E+03    0.24084E-02   -0.79012E-03   482   0.205E-01    0.389E-01
RMM:   5    -0.187190528551E+03    0.20470E-02   -0.14184E-03   465   0.873E-02    0.183E-01
RMM:   6    -0.187190277024E+03    0.25153E-03   -0.18585E-03   465   0.966E-02    0.176E-01
RMM:   7    -0.187189780565E+03    0.49646E-03   -0.13942E-03   460   0.807E-02    0.125E-01
RMM:   8    -0.187189572193E+03    0.20837E-03   -0.22651E-04   267   0.407E-02    0.589E-02
RMM:   9    -0.187189517998E+03    0.54195E-04   -0.13127E-04   248   0.394E-02
   3 F= -.18718952E+03 E0= -.18714722E+03  d E =-.674175E-01
 curvature:  -2.57 expect dE=-0.143E-01 dE for cont linesearch -0.837E-02
 ZBRENT: increasing intervall
 opt :  10.0000  next Energy=  -187.171344 (dE=-0.492E-01)
 bond charge predicted
       N       E                     dE             d eps       ncg     rms          rms(c)
RMM:   1    -0.187084993894E+03    0.10458E+00   -0.51399E+01   457   0.128E+01    0.156E+00
RMM:   2    -0.187821057580E+03   -0.73606E+00   -0.15840E+00   468   0.327E+00    0.630E+00
RMM:   3    -0.187207884613E+03    0.61317E+00   -0.33940E-01   553   0.122E+00    0.134E+00
RMM:   4    -0.187181852336E+03    0.26032E-01   -0.58465E-02   473   0.592E-01    0.914E-01
RMM:   5    -0.187173582342E+03    0.82700E-02   -0.12202E-02   487   0.250E-01    0.500E-01
RMM:   6    -0.187171430522E+03    0.21518E-02   -0.56815E-03   475   0.170E-01    0.374E-01
RMM:   7    -0.187169730020E+03    0.17005E-02   -0.70275E-03   470   0.182E-01    0.216E-01
RMM:   8    -0.187169551930E+03    0.17809E-03   -0.20142E-03   480   0.103E-01    0.224E-01
RMM:   9    -0.187168921499E+03    0.63043E-03   -0.79681E-04   419   0.675E-02    0.926E-02
RMM:  10    -0.187168758459E+03    0.16304E-03   -0.24422E-04   270   0.420E-02    0.676E-02
RMM:  11    -0.187168697630E+03    0.60829E-04   -0.10916E-04   248   0.357E-02
   4 F= -.18716870E+03 E0= -.18712580E+03  d E =-.465971E-01
 curvature:   5.57 expect dE= 0.145E+00 dE for cont linesearch  0.540E-01
 ZBRENT: bracketing found
 ZBRENT: interpolating
 opt :   6.2026  next Energy=  -187.199460 (dE=-0.774E-01)
 bond charge predicted
       N       E                     dE             d eps       ncg     rms          rms(c)
RMM:   1    -0.187160337060E+03    0.84214E-02   -0.20638E+01   457   0.811E+00    0.753E-01
RMM:   2    -0.187283913149E+03   -0.12358E+00   -0.48966E-01   506   0.173E+00    0.244E+00
RMM:   3    -0.187204835321E+03    0.79078E-01   -0.88872E-02   592   0.589E-01    0.413E-01
RMM:   4    -0.187201134730E+03    0.37006E-02   -0.89467E-03   467   0.231E-01    0.339E-01
RMM:   5    -0.187200299824E+03    0.83491E-03   -0.24802E-03   487   0.108E-01    0.272E-01
RMM:   6    -0.187199821212E+03    0.47861E-03   -0.26465E-03   469   0.115E-01    0.184E-01
RMM:   7    -0.187199086283E+03    0.73493E-03   -0.18105E-03   458   0.953E-02    0.102E-01
RMM:   8    -0.187199025551E+03    0.60733E-04   -0.34224E-04   291   0.474E-02
   5 F= -.18719903E+03 E0= -.18715637E+03  d E =-.769251E-01
 curvature:  -1.03 expect dE=-0.585E-02 dE for cont linesearch -0.164E-04
 trial: gam= 0.25323 g(F)=  0.570E-02 g(S)=  0.000E+00 ort =-0.631E-03 (trialstep = 0.204E+01)
 search vector abs. value=  0.698E-02
 bond charge predicted
       N       E                     dE             d eps       ncg     rms          rms(c)
RMM:   1    -0.187205131742E+03   -0.60455E-02   -0.16774E+00   457   0.233E+00    0.164E-01
RMM:   2    -0.187209114851E+03   -0.39831E-02   -0.36414E-02   542   0.424E-01    0.208E-01
RMM:   3    -0.187208965815E+03    0.14904E-03   -0.42229E-03   575   0.140E-01    0.156E-01
RMM:   4    -0.187208715162E+03    0.25065E-03   -0.28431E-04   294   0.412E-02    0.115E-01
RMM:   5    -0.187208549334E+03    0.16583E-03   -0.11838E-04   247   0.372E-02    0.749E-02
RMM:   6    -0.187208524494E+03    0.24839E-04   -0.31971E-04   276   0.437E-02
   6 F= -.18720852E+03 E0= -.18716675E+03  d E =-.949894E-02
 trial-energy change:   -0.009499  1 .order   -0.009592   -0.011300   -0.007884
 step:   6.7501(harm=  6.7501)  dis= 0.01452  next Energy=  -187.217716 (dE=-0.187E-01)
 bond charge predicted
       N       E                     dE             d eps       ncg     rms          rms(c)
RMM:   1    -0.187197541922E+03    0.11007E-01   -0.89192E+00   457   0.539E+00    0.408E-01
RMM:   2    -0.187221566109E+03   -0.24024E-01   -0.19801E-01   536   0.101E+00    0.634E-01
RMM:   3    -0.187219006088E+03    0.25600E-02   -0.25146E-02   584   0.335E-01    0.415E-01
RMM:   4    -0.187216845321E+03    0.21608E-02   -0.31322E-03   488   0.126E-01    0.273E-01
RMM:   5    -0.187215771742E+03    0.10736E-02   -0.61086E-04   386   0.588E-02    0.161E-01
RMM:   6    -0.187215398489E+03    0.37325E-03   -0.23015E-03   467   0.102E-01    0.154E-01
RMM:   7    -0.187215006414E+03    0.39207E-03   -0.84633E-04   445   0.586E-02    0.565E-02
RMM:   8    -0.187214959089E+03    0.47326E-04   -0.13482E-04   253   0.358E-02
   7 F= -.18721496E+03 E0= -.18717556E+03  d E =-.159335E-01
 curvature:  -4.25 expect dE=-0.126E-01 dE for cont linesearch -0.358E-03
 ZBRENT: interpolating
 opt :   5.9707  next Energy=  -187.215258 (dE=-0.162E-01)
 bond charge predicted
       N       E                     dE             d eps       ncg     rms          rms(c)
RMM:   1    -0.187214899723E+03    0.10669E-03   -0.24695E-01   457   0.895E-01    0.600E-02
RMM:   2    -0.187215639179E+03   -0.73946E-03   -0.51872E-03   532   0.161E-01    0.139E-01
RMM:   3    -0.187215436735E+03    0.20244E-03   -0.53862E-04   359   0.550E-02    0.626E-02
RMM:   4    -0.187215368486E+03    0.68249E-04   -0.10443E-04   244   0.331E-02
   8 F= -.18721537E+03 E0= -.18717557E+03  d E =-.163429E-01
 curvature:  -3.55 expect dE=-0.747E-02 dE for cont linesearch -0.152E-05
 trial: gam= 0.37728 g(F)=  0.210E-02 g(S)=  0.000E+00 ort = 0.546E-04 (trialstep = 0.283E+01)
 search vector abs. value=  0.314E-02
 bond charge predicted
       N       E                     dE             d eps       ncg     rms          rms(c)
RMM:   1    -0.187217460454E+03   -0.20237E-02   -0.14586E+00   457   0.215E+00    0.174E-01
RMM:   2    -0.187221612636E+03   -0.41522E-02   -0.34556E-02   541   0.397E-01    0.256E-01
RMM:   3    -0.187220627380E+03    0.98526E-03   -0.40435E-03   553   0.150E-01    0.109E-01
RMM:   4    -0.187220524210E+03    0.10317E-03   -0.28024E-04   304   0.376E-02    0.983E-02
RMM:   5    -0.187220429533E+03    0.94676E-04   -0.89189E-05   242   0.311E-02
   9 F= -.18722043E+03 E0= -.18718056E+03  d E =-.506105E-02
 trial-energy change:   -0.005061  1 .order   -0.005051   -0.006007   -0.004095
 step:   8.8824(harm=  8.8824)  dis= 0.01457  next Energy=  -187.224807 (dE=-0.944E-02)
 bond charge predicted
       N       E                     dE             d eps       ncg     rms          rms(c)
RMM:   1    -0.187212330464E+03    0.81937E-02   -0.67121E+00   457   0.462E+00    0.404E-01
RMM:   2    -0.187233945950E+03   -0.21615E-01   -0.15743E-01   527   0.884E-01    0.704E-01
RMM:   3    -0.187226906182E+03    0.70398E-02   -0.20589E-02   559   0.325E-01    0.331E-01
RMM:   4    -0.187225895630E+03    0.10106E-02   -0.25003E-03   511   0.108E-01    0.266E-01
RMM:   5    -0.187225111318E+03    0.78431E-03   -0.45690E-04   327   0.500E-02    0.176E-01
RMM:   6    -0.187224907294E+03    0.20402E-03   -0.12181E-03   469   0.817E-02    0.197E-01
RMM:   7    -0.187224074800E+03    0.83249E-03   -0.20420E-03   456   0.917E-02    0.639E-02
RMM:   8    -0.187223996736E+03    0.78064E-04   -0.18779E-04   256   0.444E-02
  10 F= -.18722400E+03 E0= -.18718398E+03  d E =-.862825E-02
 curvature:  -6.56 expect dE=-0.784E-02 dE for cont linesearch -0.180E-06
 trial: gam= 0.54688 g(F)=  0.119E-02 g(S)=  0.000E+00 ort = 0.927E-05 (trialstep = 0.404E+01)
 search vector abs. value=  0.214E-02
 bond charge predicted
       N       E                     dE             d eps       ncg     rms          rms(c)
RMM:   1    -0.187222681394E+03    0.13934E-02   -0.20142E+00   457   0.253E+00    0.213E-01
RMM:   2    -0.187228663054E+03   -0.59817E-02   -0.48627E-02   532   0.496E-01    0.317E-01
RMM:   3    -0.187227320150E+03    0.13429E-02   -0.62941E-03   560   0.180E-01    0.150E-01
RMM:   4    -0.187227164755E+03    0.15539E-03   -0.47156E-04   334   0.476E-02    0.132E-01
RMM:   5    -0.187226949845E+03    0.21491E-03   -0.12908E-04   248   0.357E-02    0.870E-02
RMM:   6    -0.187226890468E+03    0.59378E-04   -0.34989E-04   298   0.462E-02
  11 F= -.18722689E+03 E0= -.18718825E+03  d E =-.289373E-02
 trial-energy change:   -0.002894  1 .order   -0.003110   -0.004843   -0.001377
 step:   5.6423(harm=  5.6423)  dis= 0.00785  next Energy=  -187.227381 (dE=-0.338E-02)
 bond charge predicted
       N       E                     dE             d eps       ncg     rms          rms(c)
RMM:   1    -0.187226067434E+03    0.88241E-03   -0.32018E-01   457   0.102E+00    0.905E-02
RMM:   2    -0.187227134922E+03   -0.10675E-02   -0.73286E-03   516   0.199E-01    0.164E-01
RMM:   3    -0.187226902001E+03    0.23292E-03   -0.96919E-04   439   0.712E-02    0.945E-02
RMM:   4    -0.187226749100E+03    0.15290E-03   -0.17739E-04   253   0.404E-02    0.516E-02
RMM:   5    -0.187226703597E+03    0.45503E-04   -0.60076E-05   238   0.295E-02
  12 F= -.18722670E+03 E0= -.18718841E+03  d E =-.270686E-02
 curvature:  -5.04 expect dE=-0.153E-02 dE for cont linesearch -0.949E-04
 ZBRENT: interpolating
 opt :   5.0475  next Energy=  -187.226763 (dE=-0.277E-02)
 bond charge predicted
       N       E                     dE             d eps       ncg     rms          rms(c)
RMM:   1    -0.187226638773E+03    0.11033E-03   -0.43165E-02   457   0.370E-01    0.451E-02
RMM:   2    -0.187226920220E+03   -0.28145E-03   -0.13901E-03   481   0.797E-02    0.110E-01
RMM:   3    -0.187226723518E+03    0.19670E-03   -0.19356E-04   255   0.389E-02    0.309E-02
RMM:   4    -0.187226707792E+03    0.15726E-04   -0.67961E-05   237   0.282E-02
  13 F= -.18722671E+03 E0= -.18718828E+03  d E =-.271106E-02
 curvature:  -3.17 expect dE=-0.752E-03 dE for cont linesearch -0.213E-04
 ZBRENT: interpolating
 opt :   5.2698  next Energy=  -187.226721 (dE=-0.272E-02)
 bond charge predicted
       N       E                     dE             d eps       ncg     rms          rms(c)
RMM:   1    -0.187226682778E+03    0.40740E-04   -0.58162E-03   455   0.137E-01    0.135E-02
RMM:   2    -0.187226705500E+03   -0.22722E-04   -0.11191E-04   236   0.293E-02
  14 F= -.18722671E+03 E0= -.18718833E+03  d E =-.270876E-02
 curvature:  -1.99 expect dE=-0.551E-03 dE for cont linesearch -0.739E-04
 ZBRENT: interpolating
 opt :   5.1138  next Energy=  -187.226712 (dE=-0.272E-02)
 bond charge predicted
       N       E                     dE             d eps       ncg     rms          rms(c)
RMM:   1    -0.187226694578E+03   -0.11800E-04   -0.26985E-03   453   0.974E-02    0.140E-02
RMM:   2    -0.187226743939E+03   -0.49361E-04   -0.10321E-04   235   0.394E-02
  15 F= -.18722674E+03 E0= -.18718833E+03  d E =-.274720E-02
 curvature:  -0.11 expect dE=-0.280E-04 dE for cont linesearch -0.185E-05
 ZBRENT: bisectioning
 opt :   5.1918  next Energy=  -187.226762 (dE=-0.277E-02)
 bond charge predicted
       N       E                     dE             d eps       ncg     rms          rms(c)
RMM:   1    -0.187226703081E+03   -0.85035E-05   -0.62543E-04   406   0.495E-02    0.122E-02
RMM:   2    -0.187226723985E+03   -0.20904E-04   -0.49065E-05   233   0.258E-02
  16 F= -.18722672E+03 E0= -.18718834E+03  d E =-.272725E-02
 curvature:  -1.06 expect dE=-0.257E-03 dE for cont linesearch -0.118E-04
 ZBRENT: interpolating
 opt :   5.1571  next Energy=  -187.226727 (dE=-0.273E-02)
 bond charge predicted
       N       E                     dE             d eps       ncg     rms          rms(c)
RMM:   1    -0.187226704199E+03   -0.11176E-05   -0.11666E-04   230   0.241E-02    0.134E-02
RMM:   2    -0.187226756438E+03   -0.52239E-04   -0.41170E-05   234   0.203E-02
  17 F= -.18722676E+03 E0= -.18718834E+03  d E =-.275970E-02
 curvature:  -0.24 expect dE=-0.602E-04 dE for cont linesearch -0.737E-06
 ZBRENT: interpolating
 opt :   5.1690  next Energy=  -187.226757 (dE=-0.276E-02)
 bond charge predicted
       N       E                     dE             d eps       ncg     rms          rms(c)
RMM:   1    -0.187226708115E+03   -0.39157E-05   -0.27084E-05   235   0.193E-02    0.989E-03
RMM:   2    -0.187226720975E+03   -0.12861E-04   -0.19345E-05   231   0.143E-02
  18 F= -.18722672E+03 E0= -.18718834E+03  d E =-.272424E-02
 curvature:  -0.16 expect dE=-0.373E-04 dE for cont linesearch -0.583E-06
 ZBRENT: interpolating
 opt :   5.1628  next Energy=  -187.226757 (dE=-0.276E-02)
 bond charge predicted
       N       E                     dE             d eps       ncg     rms          rms(c)
RMM:   1    -0.187226704674E+03    0.34402E-05   -0.11040E-05   227   0.126E-02    0.102E-02
RMM:   2    -0.187226730442E+03   -0.25768E-04   -0.17675E-05   230   0.129E-02
  19 F= -.18722673E+03 E0= -.18718832E+03  d E =-.273371E-02
 curvature:  -0.06 expect dE=-0.153E-04 dE for cont linesearch -0.571E-08
 trial: gam= 0.10180 g(F)=  0.245E-03 g(S)=  0.000E+00 ort = 0.140E-04 (trialstep = 0.426E+01)
 search vector abs. value=  0.270E-03
 bond charge predicted
       N       E                     dE             d eps       ncg     rms          rms(c)
RMM:   1    -0.187226958740E+03   -0.25407E-03   -0.28169E-01   457   0.951E-01    0.836E-02
RMM:   2    -0.187227861611E+03   -0.90287E-03   -0.68275E-03   525   0.185E-01    0.142E-01
RMM:   3    -0.187227561221E+03    0.30039E-03   -0.87783E-04   439   0.711E-02    0.583E-02
RMM:   4    -0.187227526706E+03    0.34515E-04   -0.11317E-04   245   0.316E-02
  20 F= -.18722753E+03 E0= -.18718934E+03  d E =-.796264E-03
 trial-energy change:   -0.000796  1 .order   -0.000708   -0.001050   -0.000365
 step:   6.5334(harm=  6.5334)  dis= 0.00178  next Energy=  -187.227535 (dE=-0.805E-03)
 bond charge predicted
       N       E                     dE             d eps       ncg     rms          rms(c)
RMM:   1    -0.187227580762E+03   -0.19541E-04   -0.81373E-02   457   0.511E-01    0.586E-02
RMM:   2    -0.187227872742E+03   -0.29198E-03   -0.18118E-03   471   0.103E-01    0.104E-01
RMM:   3    -0.187227754997E+03    0.11774E-03   -0.23497E-04   260   0.384E-02    0.649E-02
RMM:   4    -0.187227701342E+03    0.53655E-04   -0.10852E-04   240   0.377E-02
  21 F= -.18722770E+03 E0= -.18718966E+03  d E =-.970900E-03
 curvature:  -3.58 expect dE=-0.239E-03 dE for cont linesearch -0.179E-05
 trial: gam= 0.20295 g(F)=  0.666E-04 g(S)=  0.000E+00 ort = 0.116E-04 (trialstep = 0.472E+01)
 search vector abs. value=  0.825E-04
 bond charge predicted
       N       E                     dE             d eps       ncg     rms          rms(c)
RMM:   1    -0.187227775998E+03   -0.21001E-04   -0.10590E-01   456   0.586E-01    0.543E-02
RMM:   2    -0.187228223185E+03   -0.44719E-03   -0.24816E-03   525   0.110E-01    0.124E-01
RMM:   3    -0.187228038058E+03    0.18513E-03   -0.26340E-04   266   0.449E-02    0.586E-02
RMM:   4    -0.187227978844E+03    0.59214E-04   -0.11255E-04   242   0.363E-02
  22 F= -.18722798E+03 E0= -.18718993E+03  d E =-.277501E-03
 trial-energy change:   -0.000278  1 .order   -0.000205   -0.000325   -0.000085
 step:   6.3849(harm=  6.3849)  dis= 0.00109  next Energy=  -187.227922 (dE=-0.220E-03)
 bond charge predicted
       N       E                     dE             d eps       ncg     rms          rms(c)
RMM:   1    -0.187228003128E+03    0.34930E-04   -0.13749E-02   456   0.212E-01    0.301E-02
RMM:   2    -0.187228082813E+03   -0.79686E-04   -0.26427E-04   249   0.479E-02
  23 F= -.18722808E+03 E0= -.18719009E+03  d E =-.381471E-03
 curvature:  -3.82 expect dE=-0.243E-03 dE for cont linesearch -0.103E-03
 ZBRENT: interpolating
 opt :   5.1776  next Energy=  -187.227983 (dE=-0.282E-03)
 bond charge predicted
       N       E                     dE             d eps       ncg     rms          rms(c)
RMM:   1    -0.187227972111E+03    0.31017E-04   -0.61524E-03   455   0.147E-01    0.333E-02
RMM:   2    -0.187228139532E+03   -0.16742E-03   -0.35841E-04   305   0.678E-02    0.106E-01
RMM:   3    -0.187227996382E+03    0.14315E-03   -0.84259E-05   243   0.333E-02    0.292E-02
RMM:   4    -0.187227967281E+03    0.29101E-04   -0.36147E-05   236   0.182E-02
  24 F= -.18722797E+03 E0= -.18718994E+03  d E =-.265939E-03
 curvature:  -0.15 expect dE=-0.963E-05 dE for cont linesearch -0.700E-05
 ZBRENT: interpolating
 opt :   5.8597  next Energy=  -187.228095 (dE=-0.394E-03)
 bond charge predicted
       N       E                     dE             d eps       ncg     rms          rms(c)
RMM:   1    -0.187227988300E+03    0.80822E-05   -0.20527E-03   451   0.839E-02    0.976E-03
RMM:   2    -0.187228000828E+03   -0.12528E-04   -0.41697E-05   231   0.210E-02
  25 F= -.18722800E+03 E0= -.18718995E+03  d E =-.299486E-03
 curvature:  -0.27 expect dE=-0.677E-05 dE for cont linesearch -0.252E-07
 trial: gam= 0.47202 g(F)=  0.249E-04 g(S)=  0.000E+00 ort = 0.276E-05 (trialstep = 0.495E+01)
 search vector abs. value=  0.459E-04
 bond charge predicted
       N       E                     dE             d eps       ncg     rms          rms(c)
RMM:   1    -0.187228021283E+03   -0.32983E-04   -0.64519E-02   457   0.456E-01    0.360E-02
RMM:   2    -0.187228209663E+03   -0.18838E-03   -0.13996E-03   484   0.834E-02    0.632E-02
RMM:   3    -0.187228177975E+03    0.31688E-04   -0.14326E-04   239   0.304E-02
  26 F= -.18722818E+03 E0= -.18719038E+03  d E =-.177147E-03
 trial-energy change:   -0.000177  1 .order   -0.000050   -0.000129    0.000030
 step:   4.0158(harm=  4.0158)  dis= 0.00055  next Energy=  -187.228053 (dE=-0.526E-04)
 bond charge predicted
       N       E                     dE             d eps       ncg     rms          rms(c)
RMM:   1    -0.187228125551E+03    0.84111E-04   -0.20017E-03   451   0.866E-02    0.201E-02
RMM:   2    -0.187228134101E+03   -0.85500E-05   -0.79783E-05   232   0.328E-02
  27 F= -.18722813E+03 E0= -.18719032E+03  d E =-.133273E-03
 curvature:  -3.52 expect dE=-0.235E-03 dE for cont linesearch -0.196E-03
 ZBRENT: interpolating
 opt :   4.8460  next Energy=  -187.228178 (dE=-0.177E-03)
 bond charge predicted
       N       E                     dE             d eps       ncg     rms          rms(c)
RMM:   1    -0.187228142813E+03   -0.17262E-04   -0.16299E-03   451   0.760E-02    0.179E-02
RMM:   2    -0.187228257215E+03   -0.11440E-03   -0.75131E-05   244   0.284E-02    0.879E-02
RMM:   3    -0.187228151664E+03    0.10555E-03   -0.32784E-05   237   0.233E-02    0.711E-03
RMM:   4    -0.187228140592E+03    0.11072E-04   -0.67481E-06   214   0.791E-03
  28 F= -.18722814E+03 E0= -.18719035E+03  d E =-.139764E-03
 curvature:  -0.01 expect dE=-0.806E-07 dE for cont linesearch -0.242E-07
 ZBRENT: interpolating
 opt :   4.9159  next Energy=  -187.228178 (dE=-0.177E-03)
 bond charge predicted
       N       E                     dE             d eps       ncg     rms          rms(c)
RMM:   1    -0.187228141223E+03    0.10441E-04   -0.17895E-05   231   0.944E-03    0.361E-03
RMM:   2    -0.187228144009E+03   -0.27860E-05   -0.48083E-06   227   0.828E-03
  29 F= -.18722814E+03 E0= -.18719035E+03  d E =-.143182E-03
 curvature:  -0.02 expect dE=-0.321E-06 dE for cont linesearch -0.906E-07
 ZBRENT: interpolating
 opt :   4.9367  next Energy=  -187.228178 (dE=-0.177E-03)
 bond charge predicted
       N       E                     dE             d eps       ncg     rms          rms(c)
RMM:   1    -0.187228141885E+03   -0.66160E-06   -0.18155E-06   120   0.554E-03    0.276E-03
RMM:   2    -0.187228143424E+03   -0.15385E-05   -0.13992E-06   110   0.535E-03
  30 F= -.18722814E+03 E0= -.18719035E+03  d E =-.142596E-03
 curvature:  -0.01 expect dE=-0.870E-07 dE for cont linesearch -0.173E-07
 ZBRENT: interpolating
 opt :   4.9424  next Energy=  -187.228178 (dE=-0.177E-03)
 bond charge predicted
       N       E                     dE             d eps       ncg     rms          rms(c)
RMM:   1    -0.187228141921E+03   -0.36394E-07   -0.61959E-07    67   0.449E-03    0.235E-03
RMM:   2    -0.187228143088E+03   -0.11663E-05   -0.13271E-06   127   0.542E-03
  31 F= -.18722814E+03 E0= -.18719035E+03  d E =-.142260E-03
 curvature:   0.00 expect dE=-0.461E-07 dE for cont linesearch -0.108E-07
 ZBRENT: interpolating
 opt :   4.9445  next Energy=  -187.228178 (dE=-0.177E-03)
 bond charge predicted
       N       E                     dE             d eps       ncg     rms          rms(c)
RMM:   1    -0.187228141912E+03    0.92987E-08   -0.22254E-08    26   0.400E-03    0.202E-03
RMM:   2    -0.187228142830E+03   -0.91784E-06   -0.19671E-07    35   0.455E-03
  32 F= -.18722814E+03 E0= -.18719035E+03  d E =-.142002E-03
 curvature:   0.00 expect dE=-0.121E-07 dE for cont linesearch -0.262E-08
 ZBRENT: interpolating
 opt :   4.9451  next Energy=  -187.228178 (dE=-0.177E-03)
 bond charge predicted
       N       E                     dE             d eps       ncg     rms          rms(c)
RMM:   1    -0.187228141884E+03    0.28122E-07   -0.10916E-07    26   0.419E-03    0.167E-03
RMM:   2    -0.187228142625E+03   -0.74061E-06   -0.30316E-09    19   0.388E-03
  33 F= -.18722814E+03 E0= -.18719035E+03  d E =-.141797E-03
 curvature:   0.00 expect dE=-0.445E-08 dE for cont linesearch -0.963E-09
 ZBRENT: interpolating
 opt :   4.9453  next Energy=  -187.228178 (dE=-0.177E-03)
 bond charge predicted
       N       E                     dE             d eps       ncg     rms          rms(c)
RMM:   1    -0.187228141848E+03    0.35696E-07   -0.14430E-08    18   0.401E-03    0.141E-03
RMM:   2    -0.187228142300E+03   -0.45147E-06    0.13683E-77    12   0.424E-03
  34 F= -.18722814E+03 E0= -.18719035E+03  d E =-.141472E-03
 curvature:   0.00 expect dE=-0.150E-08 dE for cont linesearch -0.330E-09
 ZBRENT: interpolating
 opt :   4.9454  next Energy=  -187.228178 (dE=-0.177E-03)
 bond charge predicted
       N       E                     dE             d eps       ncg     rms          rms(c)
RMM:   1    -0.187228141798E+03    0.49757E-07    0.10248E-77    12   0.411E-03    0.122E-03
RMM:   2    -0.187228142197E+03   -0.39898E-06    0.33285-119    11   0.391E-03
  35 F= -.18722814E+03 E0= -.18719035E+03  d E =-.141370E-03
 curvature:   0.00 expect dE=-0.500E-09 dE for cont linesearch -0.109E-09
 ZBRENT: interpolating
 opt :   4.9454  next Energy=  -187.228178 (dE=-0.177E-03)
 bond charge predicted
       N       E                     dE             d eps       ncg     rms          rms(c)
RMM:   1    -0.187228141778E+03    0.20791E-07    0.28910-119    11   0.402E-03    0.103E-03
RMM:   2    -0.187228142026E+03   -0.24836E-06    0.27684E-33    13   0.418E-03
  36 F= -.18722814E+03 E0= -.18719035E+03  d E =-.141198E-03
 curvature:   0.00 expect dE=-0.170E-09 dE for cont linesearch -0.377E-10
 ZBRENT: interpolating
 opt :   4.9454  next Energy=  -187.228178 (dE=-0.177E-03)
 bond charge predicted
       N       E                     dE             d eps       ncg     rms          rms(c)
RMM:   1    -0.187228141751E+03    0.26743E-07    0.14072-119     9   0.410E-03    0.903E-04
RMM:   2    -0.187228141961E+03   -0.21039E-06    0.13118-119     9   0.394E-03
  37 F= -.18722814E+03 E0= -.18719035E+03  d E =-.141133E-03
 curvature:   0.00 expect dE=-0.564E-10 dE for cont linesearch -0.125E-10
 ZBRENT: interpolating
 opt :   4.9454  next Energy=  -187.228178 (dE=-0.177E-03)
 bond charge predicted
       N       E                     dE             d eps       ncg     rms          rms(c)
RMM:   1    -0.187228141737E+03    0.14021E-07    0.11374-119     9   0.404E-03    0.765E-04
RMM:   2    -0.187228141875E+03   -0.13839E-06    0.99791-120     9   0.414E-03
  38 F= -.18722814E+03 E0= -.18719035E+03  d E =-.141047E-03
 curvature:   0.00 expect dE=-0.190E-10 dE for cont linesearch -0.427E-11
 ZBRENT: interpolating
 opt :   4.9454  next Energy=  -187.228178 (dE=-0.177E-03)
 bond charge predicted
       N       E                     dE             d eps       ncg     rms          rms(c)
RMM:   1    -0.187228141722E+03    0.14763E-07    0.87946-120     9   0.410E-03    0.671E-04
RMM:   2    -0.187228141835E+03   -0.11307E-06    0.81693-120     9   0.397E-03
  39 F= -.18722814E+03 E0= -.18719035E+03  d E =-.141007E-03
 curvature:   0.00 expect dE=-0.633E-11 dE for cont linesearch -0.141E-11
 ZBRENT: interpolating
 opt :   4.9454  next Energy=  -187.228178 (dE=-0.177E-03)
 bond charge predicted
       N       E                     dE             d eps       ncg     rms          rms(c)
RMM:   1    -0.187228141713E+03    0.87530E-08    0.71096-120     9   0.405E-03    0.573E-04
RMM:   2    -0.187228141791E+03   -0.77463E-07    0.35331-120     8   0.412E-03
  40 F= -.18722814E+03 E0= -.18719035E+03  d E =-.140963E-03
 curvature:   0.00 expect dE=-0.213E-11 dE for cont linesearch -0.482E-12
 ZBRENT:  accuracy reached
 opt :   0.0000  next Energy=     0.000000 (dE= 0.187E+03)
 bond charge predicted
       N       E                     dE             d eps       ncg     rms          rms(c)
RMM:   1    -0.187227867082E+03    0.27463E-03   -0.63371E-02   457   0.453E-01    0.339E-02
RMM:   2    -0.187228022905E+03   -0.15582E-03   -0.13362E-03   470   0.833E-02    0.448E-02
RMM:   3    -0.187228014807E+03    0.80975E-05   -0.14323E-04   234   0.307E-02
  41 F= -.18722801E+03 E0= -.18718999E+03  d E =-.139791E-04
 curvature:   0.00 expect dE= 0.231-307 dE for cont linesearch  0.225-307
 ZBRENT: fatal error in bracketing
     please rerun with smaller EDIFF, or copy CONTCAR
     to POSCAR and continue
 running on    8 total cores
 distrk:  each k-point on    8 cores,    1 groups
 distr:  one band on    4 cores,    2 groups
 using from now: INCAR     
 vasp.5.4.1 24Jun15 (build Jan 06 2016 13:19:48) gamma-only                     
  
 POSCAR found type information on POSCAR  Pt
 POSCAR found :  1 types and      38 ions
 scaLAPACK will be used
 LDA part: xc-table for Ceperly-Alder, standard interpolation
 POSCAR found type information on POSCAR  Pt
 POSCAR found :  1 types and      38 ions
 POSCAR, INCAR and KPOINTS ok, starting setup
 WARNING: small aliasing (wrap around) errors must be expected
 FFT: planning ...
 WAVECAR not read
 entering main loop
       N       E                     dE             d eps       ncg     rms          rms(c)
RMM:   1     0.470215118164E+04    0.47022E+04   -0.69572E+04   228   0.680E+02
RMM:   2     0.267723583125E+04   -0.20249E+04   -0.22430E+04   228   0.167E+02
RMM:   3     0.175666832780E+04   -0.92057E+03   -0.12056E+04   228   0.121E+02
RMM:   4     0.104160022185E+04   -0.71507E+03   -0.77258E+03   228   0.119E+02
RMM:   5     0.587548335573E+03   -0.45405E+03   -0.42361E+03   228   0.888E+01
RMM:   6     0.280371148509E+03   -0.30718E+03   -0.26228E+03   228   0.843E+01
RMM:   7     0.107600696110E+03   -0.17277E+03   -0.14762E+03   228   0.626E+01
RMM:   8    -0.154877143570E+02   -0.12309E+03   -0.98490E+02   228   0.679E+01
RMM:   9    -0.117356693542E+03   -0.10187E+03   -0.95758E+02   630   0.435E+01
RMM:  10    -0.162234665311E+03   -0.44878E+02   -0.41588E+02   719   0.148E+01
RMM:  11    -0.182920400891E+03   -0.20686E+02   -0.17773E+02   745   0.758E+00
RMM:  12    -0.191766614752E+03   -0.88462E+01   -0.79985E+01   747   0.410E+00    0.214E+01
RMM:  13    -0.183539698485E+03    0.82269E+01   -0.63485E+01   507   0.177E+01    0.874E+00
RMM:  14    -0.185781873484E+03   -0.22422E+01   -0.39226E+01   573   0.929E+00    0.717E+00
RMM:  15    -0.185756026518E+03    0.25847E-01   -0.16072E+01   593   0.455E+00    0.416E+00
RMM:  16    -0.186478470514E+03   -0.72244E+00   -0.79256E+00   606   0.265E+00    0.344E+00
RMM:  17    -0.186842814376E+03   -0.36434E+00   -0.33154E+00   568   0.181E+00    0.294E+00
RMM:  18    -0.187004326452E+03   -0.16151E+00   -0.16172E+00   578   0.125E+00    0.235E+00
RMM:  19    -0.187147460088E+03   -0.14313E+00   -0.90975E-01   580   0.111E+00    0.242E+00
RMM:  20    -0.187164000146E+03   -0.16540E-01   -0.66951E-01   532   0.900E-01    0.128E+00
RMM:  21    -0.187177808235E+03   -0.13808E-01   -0.22116E-01   557   0.652E-01    0.108E+00
RMM:  22    -0.187187224376E+03   -0.94161E-02   -0.11215E-01   533   0.409E-01    0.695E-01
RMM:  23    -0.187210938172E+03   -0.23714E-01   -0.17830E-01   529   0.376E-01    0.623E-01
RMM:  24    -0.187222178232E+03   -0.11240E-01   -0.83223E-02   528   0.209E-01    0.470E-01
RMM:  25    -0.187224723778E+03   -0.25455E-02   -0.24302E-02   521   0.143E-01    0.382E-01
RMM:  26    -0.187223862000E+03    0.86178E-03   -0.61745E-03   522   0.122E-01    0.379E-01
RMM:  27    -0.187221443800E+03    0.24182E-02   -0.33065E-03   481   0.129E-01    0.306E-01
RMM:  28    -0.187219884814E+03    0.15590E-02   -0.23744E-03   470   0.118E-01    0.189E-01
RMM:  29    -0.187219776345E+03    0.10847E-03   -0.64210E-04   444   0.722E-02    0.801E-02
RMM:  30    -0.187220326054E+03   -0.54971E-03   -0.21898E-04   291   0.404E-02    0.610E-02
RMM:  31    -0.187221607820E+03   -0.12818E-02   -0.16443E-04   276   0.411E-02    0.396E-02
RMM:  32    -0.187222984770E+03   -0.13770E-02   -0.15928E-04   278   0.281E-02    0.290E-02
RMM:  33    -0.187224193540E+03   -0.12088E-02   -0.14753E-04   271   0.242E-02    0.188E-02
RMM:  34    -0.187225506029E+03   -0.13125E-02   -0.21426E-04   291   0.212E-02    0.194E-02
RMM:  35    -0.187226506942E+03   -0.10009E-02   -0.19481E-04   282   0.199E-02    0.150E-02
RMM:  36    -0.187227489250E+03   -0.98231E-03   -0.27519E-04   298   0.208E-02    0.133E-02
RMM:  37    -0.187227858555E+03   -0.36930E-03   -0.15195E-04   268   0.182E-02    0.792E-03
RMM:  38    -0.187227993920E+03   -0.13536E-03   -0.69506E-05   227   0.141E-02    0.774E-03
RMM:  39    -0.187228051466E+03   -0.57547E-04   -0.38260E-05   190   0.122E-02
   1 F= -.18722805E+03 E0= -.18719025E+03  d E =-.187228E+03
 curvature:   0.00 expect dE= 0.000E+00 dE for cont linesearch  0.000E+00
 trial: gam= 0.00000 g(F)=  0.197E-04 g(S)=  0.000E+00 ort = 0.000E+00 (trialstep = 0.100E+01)
 search vector abs. value=  0.197E-04
 bond charge predicted
       N       E                     dE             d eps       ncg     rms          rms(c)
RMM:   1    -0.187228091281E+03   -0.97361E-04   -0.11491E-03   450   0.615E-02    0.512E-03
RMM:   2    -0.187228117724E+03   -0.26443E-04   -0.27678E-05   250   0.178E-02
   2 F= -.18722812E+03 E0= -.18719031E+03  d E =-.662572E-04
 trial-energy change:   -0.000066  1 .order   -0.000013   -0.000020   -0.000006
 step:   1.4499(harm=  1.4499)  dis= 0.00011  next Energy=  -187.228066 (dE=-0.143E-04)
 reached required accuracy - stopping structural energy minimisation
