       N       E                     dE             d eps       ncg     rms          rms(c)
RMM:   1     0.470215118164E+04    0.47022E+04   -0.69572E+04   228   0.680E+02
RMM:   2     0.267723583125E+04   -0.20249E+04   -0.22430E+04   228   0.167E+02
RMM:   3     0.175666832780E+04   -0.92057E+03   -0.12056E+04   228   0.121E+02
RMM:   4     0.104160022185E+04   -0.71507E+03   -0.77258E+03   228   0.119E+02
RMM:   5     0.587548335573E+03   -0.45405E+03   -0.42361E+03   228   0.888E+01
RMM:   6     0.280371148509E+03   -0.30718E+03   -0.26228E+03   228   0.843E+01
RMM:   7     0.107600696110E+03   -0.17277E+03   -0.14762E+03   228   0.626E+01
RMM:   8    -0.154877143570E+02   -0.12309E+03   -0.98490E+02   228   0.679E+01
RMM:   9    -0.117356693542E+03   -0.10187E+03   -0.95758E+02   630   0.435E+01
RMM:  10    -0.162234665311E+03   -0.44878E+02   -0.41588E+02   719   0.148E+01
RMM:  11    -0.182920400891E+03   -0.20686E+02   -0.17773E+02   745   0.758E+00
RMM:  12    -0.191766614752E+03   -0.88462E+01   -0.79985E+01   747   0.410E+00    0.214E+01
RMM:  13    -0.183539698485E+03    0.82269E+01   -0.63485E+01   507   0.177E+01    0.874E+00
RMM:  14    -0.185781873484E+03   -0.22422E+01   -0.39226E+01   573   0.929E+00    0.717E+00
RMM:  15    -0.185756026518E+03    0.25847E-01   -0.16072E+01   593   0.455E+00    0.416E+00
RMM:  16    -0.186478470514E+03   -0.72244E+00   -0.79256E+00   606   0.265E+00    0.344E+00
RMM:  17    -0.186842814376E+03   -0.36434E+00   -0.33154E+00   568   0.181E+00    0.294E+00
RMM:  18    -0.187004326452E+03   -0.16151E+00   -0.16172E+00   578   0.125E+00    0.235E+00
RMM:  19    -0.187147460088E+03   -0.14313E+00   -0.90975E-01   580   0.111E+00    0.242E+00
RMM:  20    -0.187164000146E+03   -0.16540E-01   -0.66951E-01   532   0.900E-01    0.128E+00
RMM:  21    -0.187177808235E+03   -0.13808E-01   -0.22116E-01   557   0.652E-01    0.108E+00
RMM:  22    -0.187187224376E+03   -0.94161E-02   -0.11215E-01   533   0.409E-01    0.695E-01
RMM:  23    -0.187210938172E+03   -0.23714E-01   -0.17830E-01   529   0.376E-01    0.623E-01
RMM:  24    -0.187222178232E+03   -0.11240E-01   -0.83223E-02   528   0.209E-01    0.470E-01
RMM:  25    -0.187224723778E+03   -0.25455E-02   -0.24302E-02   521   0.143E-01    0.382E-01
RMM:  26    -0.187223862000E+03    0.86178E-03   -0.61745E-03   522   0.122E-01    0.379E-01
RMM:  27    -0.187221443800E+03    0.24182E-02   -0.33065E-03   481   0.129E-01    0.306E-01
RMM:  28    -0.187219884814E+03    0.15590E-02   -0.23744E-03   470   0.118E-01    0.189E-01
RMM:  29    -0.187219776345E+03    0.10847E-03   -0.64210E-04   444   0.722E-02    0.801E-02
RMM:  30    -0.187220326054E+03   -0.54971E-03   -0.21898E-04   291   0.404E-02    0.610E-02
RMM:  31    -0.187221607820E+03   -0.12818E-02   -0.16443E-04   276   0.411E-02    0.396E-02
RMM:  32    -0.187222984770E+03   -0.13770E-02   -0.15928E-04   278   0.281E-02    0.290E-02
RMM:  33    -0.187224193540E+03   -0.12088E-02   -0.14753E-04   271   0.242E-02    0.188E-02
RMM:  34    -0.187225506029E+03   -0.13125E-02   -0.21426E-04   291   0.212E-02    0.194E-02
RMM:  35    -0.187226506942E+03   -0.10009E-02   -0.19481E-04   282   0.199E-02    0.150E-02
RMM:  36    -0.187227489250E+03   -0.98231E-03   -0.27519E-04   298   0.208E-02    0.133E-02
RMM:  37    -0.187227858555E+03   -0.36930E-03   -0.15195E-04   268   0.182E-02    0.792E-03
RMM:  38    -0.187227993920E+03   -0.13536E-03   -0.69506E-05   227   0.141E-02    0.774E-03
RMM:  39    -0.187228051466E+03   -0.57547E-04   -0.38260E-05   190   0.122E-02
   1 F= -.18722805E+03 E0= -.18719025E+03  d E =-.187228E+03
       N       E                     dE             d eps       ncg     rms          rms(c)
RMM:   1    -0.187228091281E+03   -0.97361E-04   -0.11491E-03   450   0.615E-02    0.512E-03
RMM:   2    -0.187228117724E+03   -0.26443E-04   -0.27678E-05   250   0.178E-02
   2 F= -.18722812E+03 E0= -.18719031E+03  d E =-.662572E-04
