 vasp.5.4.1 24Jun15 (build Jan 06 2016 13:19:48) gamma-only                     
  
 executed on           IFC91_ompi date 2016.03.24  01:35:25
 running on    8 total cores
 distrk:  each k-point on    8 cores,    1 groups
 distr:  one band on NCORES_PER_BAND=   4 cores,    2 groups


--------------------------------------------------------------------------------------------------------


 INCAR:
 POTCAR:    PAW Pt                                
 POTCAR:    PAW Pt                                
   VRHFIN =Pt: s1d9                                                             
   LEXCH  = 91                                                                  
   EATOM  =   730.0441 eV,   53.6567 Ry                                         
                                                                                
   TITEL  = PAW Pt                                                              
   LULTRA =        F    use ultrasoft PP ?                                      
   IUNSCR =        1    unscreen: 0-lin 1-nonlin 2-no                           
   RPACOR =    2.330    partial core radius                                     
   POMASS =  195.080; ZVAL   =   10.000    mass and valenz                      
   RCORE  =    2.500    outmost cutoff radius                                   
   RWIGS  =    2.750; RWIGS  =    1.455    wigner-seitz radius (au A)           
   ENMAX  =  230.277; ENMIN  =  172.708 eV                                      
   RCLOC  =    1.896    cutoff for local pot                                    
   LCOR   =        T    correct aug charges                                     
   LPAW   =        T    paw PP                                                  
   EAUG   =  358.966                                                            
   DEXC   =    -.016                                                            
   RMAX   =    3.038    core radius for proj-oper                               
   RAUG   =    1.300    factor for augmentation sphere                          
   RDEP   =    2.590    core radius for depl-charge                             
   QCUT   =   -4.114; QGAM   =    8.228    optimization parameters              
                                                                                
   Description                                                                  
     l     E      TYP  RCUT    TYP  RCUT                                        
     2   .000     23  2.500                                                     
     2   .000     23  2.500                                                     
     0   .000     23  2.500                                                     
     0   .000     23  2.500                                                     
     1  -.200     23  2.500                                                     
     1  1.500     23  2.500                                                     
     3   .000      7   .000                                                     
  local pseudopotential read in
  partial core-charges read in
  atomic valenz-charges read in
  non local Contribution for L=           2  read in
    real space projection operators read in
  non local Contribution for L=           2  read in
    real space projection operators read in
  non local Contribution for L=           0  read in
    real space projection operators read in
  non local Contribution for L=           0  read in
    real space projection operators read in
  non local Contribution for L=           1  read in
    real space projection operators read in
  non local Contribution for L=           1  read in
    real space projection operators read in
    PAW grid and wavefunctions read in
 
   number of l-projection  operators is LMAX  =           6
   number of lm-projection operators is LMMAX =          18
 
 Optimization of the real space projectors (new method)

 maximal supplied QI-value         = 15.12
 optimisation between [QCUT,QGAM] = [  8.47, 16.93] = [ 20.07, 80.28] Ry 
 Optimized for a Real-space Cutoff    1.77 Angstroem

   l    n(q)    QCUT    max X(q) W(low)/X(q) W(high)/X(q)  e(spline) 
   2      8     8.466     3.641    0.49E-04    0.39E-05    0.40E-07
   2      8     8.466    46.630    0.33E-03    0.12E-03    0.54E-06
   0      9     8.466    13.886    0.23E-04    0.26E-05    0.52E-08
   0      9     8.466    57.975    0.13E-03    0.11E-03    0.74E-07
   1      8     8.466     7.456    0.74E-05    0.18E-04    0.29E-07
   1      8     8.466    10.270    0.67E-04    0.35E-04    0.82E-07
  PAW Pt                                :
 energy of atom  1       EATOM= -730.0441
 kinetic energy error for atom=    0.0517 (will be added to EATOM!!)
 
 
 POSCAR: Pt                                      
  positions in direct lattice
  velocities in cartesian coordinates
 exchange correlation table for  LEXCH =        7
   RHO(1)=    0.500       N(1)  =     2000
   RHO(2)=  100.500       N(2)  =     4000

 VTST: version 3.1, (03/28/14)

 CHAIN: initializing optimizer
 
 OPT: Using VASP Conjugate-Gradient optimizer
 CHAIN: Read ICHAIN            0
 
 POSCAR: Pt                                      
  positions in direct lattice
  velocities in cartesian coordinates
 


--------------------------------------------------------------------------------------------------------


 ion  position               nearest neighbor table
   1  0.723  0.573  0.500-   7 2.64  37 2.69  17 2.70  21 2.70  13 2.70   9 2.70
   2  0.573  0.723  0.500-   4 2.64  37 2.69  19 2.70  21 2.70  13 2.70  11 2.70
   3  0.277  0.573  0.500-   5 2.64  35 2.68  14 2.70  22 2.70  10 2.70  18 2.70
   4  0.426  0.723  0.500-   2 2.64  35 2.68  14 2.70  22 2.70  11 2.70  19 2.70
   5  0.277  0.427  0.499-   3 2.64  34 2.68  18 2.70  23 2.70  15 2.70  10 2.70
   6  0.427  0.277  0.499-   8 2.64  34 2.68  20 2.70  23 2.70  15 2.70  12 2.70
   7  0.723  0.426  0.500-   1 2.64  38 2.68  16 2.70  24 2.70   9 2.70  17 2.70
   8  0.573  0.277  0.500-   6 2.64  38 2.68  16 2.70  24 2.70  12 2.70  20 2.70
   9  0.666  0.500  0.618-  25 2.70  16 2.70   7 2.70  13 2.70   1 2.70  28 2.70  37 3.01  33 3.01
                            38 3.01
  10  0.333  0.500  0.618-  27 2.70  14 2.70  15 2.70   3 2.70   5 2.70  26 2.70  34 3.00  33 3.01
                            35 3.01
  11  0.500  0.666  0.618-  25 2.70  14 2.70  13 2.70   4 2.70   2 2.70  26 2.70  37 3.01  33 3.01
                            35 3.01
  12  0.500  0.333  0.618-  27 2.70  16 2.70  15 2.70   8 2.70   6 2.70  28 2.70  34 3.00  33 3.01
                            38 3.01
  13  0.648  0.648  0.606-  25 2.64  37 2.69   1 2.70   2 2.70  11 2.70   9 2.70
  14  0.352  0.648  0.606-  26 2.64  35 2.68  11 2.70  10 2.70   4 2.70   3 2.70
  15  0.351  0.351  0.605-  27 2.64  34 2.69   6 2.70   5 2.70  10 2.70  12 2.70
  16  0.648  0.352  0.606-  28 2.64  38 2.68   9 2.70  12 2.70   7 2.70   8 2.70
  17  0.666  0.500  0.382-  24 2.70   1 2.70  32 2.70  21 2.70  29 2.70   7 2.70  36 3.00  38 3.00
                            37 3.01
  18  0.334  0.500  0.382-  22 2.70  23 2.70   5 2.70  30 2.70  31 2.70   3 2.70  36 3.00  35 3.01
                            34 3.01
  19  0.500  0.666  0.382-  22 2.70   2 2.70  30 2.70  21 2.70  29 2.70   4 2.70  36 3.00  35 3.00
                            37 3.01
  20  0.500  0.334  0.382-  24 2.70  23 2.70   6 2.70  32 2.70  31 2.70   8 2.70  36 3.00  38 3.01
                            34 3.01
  21  0.648  0.648  0.394-  29 2.64  37 2.69  19 2.70  17 2.70   1 2.70   2 2.70
  22  0.352  0.648  0.394-  30 2.64  35 2.69  18 2.70  19 2.70   4 2.70   3 2.70
  23  0.352  0.352  0.393-  31 2.64  34 2.69  18 2.70  20 2.70   6 2.70   5 2.70
  24  0.648  0.352  0.394-  32 2.64  38 2.69  20 2.70  17 2.70   7 2.70   8 2.70
  25  0.575  0.575  0.710-  13 2.64  33 2.69  11 2.70   9 2.70  28 2.70  26 2.70
  26  0.425  0.574  0.710-  14 2.64  33 2.68  25 2.70  27 2.70  10 2.70  11 2.70
  27  0.424  0.424  0.710-  15 2.64  33 2.70  10 2.70  12 2.70  28 2.70  26 2.70
  28  0.574  0.425  0.710-  16 2.64  33 2.68  25 2.70  27 2.70  12 2.70   9 2.70
  29  0.575  0.575  0.290-  21 2.64  36 2.68  30 2.70  32 2.70  19 2.70  17 2.70
  30  0.425  0.575  0.290-  22 2.64  36 2.69  31 2.70  29 2.70  19 2.70  18 2.70
  31  0.425  0.425  0.290-  23 2.64  36 2.68  32 2.70  30 2.70  18 2.70  20 2.70
  32  0.575  0.425  0.290-  24 2.64  36 2.69  31 2.70  29 2.70  17 2.70  20 2.70
  33  0.500  0.500  0.605-  38 2.67  35 2.67  34 2.67  37 2.67  28 2.68  26 2.68  25 2.69  27 2.70
                            12 3.01  10 3.01   9 3.01  11 3.01
  34  0.426  0.426  0.500-  38 2.66  35 2.66  36 2.67  33 2.67   6 2.68   5 2.68  23 2.69  15 2.69
                            12 3.00  10 3.00  20 3.01  18 3.01
  35  0.426  0.574  0.500-  37 2.66  34 2.66  36 2.67  33 2.67   3 2.68   4 2.68  14 2.68  22 2.69
                            19 3.00  18 3.01  11 3.01  10 3.01
  36  0.500  0.500  0.395-  38 2.67  35 2.67  37 2.67  34 2.67  29 2.68  31 2.68  32 2.69  30 2.69
                            20 3.00  17 3.00  19 3.00  18 3.00
  37  0.574  0.574  0.500-  35 2.66  38 2.66  36 2.67  33 2.67  21 2.69   1 2.69   2 2.69  13 2.69
                            11 3.01   9 3.01  17 3.01  19 3.01
  38  0.574  0.426  0.500-  37 2.66  34 2.66  36 2.67  33 2.67   8 2.68   7 2.68  16 2.68  24 2.69
                            17 3.00  20 3.01   9 3.01  12 3.01
 

IMPORTANT INFORMATION: All symmetrisations will be switched off!
NOSYMM: (Re-)initialisation of all symmetry stuff for point group C_1.

 
 
 KPOINTS: Automatic Mesh                          

Automatic generation of k-mesh.
Space group operators:
 irot       det(A)        alpha          n_x          n_y          n_z        tau_x        tau_y        tau_z
    1     1.000000     0.000000     1.000000     0.000000     0.000000     0.000000     0.000000     0.000000
 
 Subroutine IBZKPT returns following result:
 ===========================================
 
 Found      1 irreducible k-points:
 
 Following reciprocal coordinates:
            Coordinates               Weight
  0.000000  0.000000  0.000000      1.000000
 
 Following cartesian coordinates:
            Coordinates               Weight
  0.000000  0.000000  0.000000      1.000000
 


--------------------------------------------------------------------------------------------------------




 Dimension of arrays:
   k-points           NKPTS =      1   k-points in BZ     NKDIM =      1   number of bands    NBANDS=    228
   number of dos      NEDOS =    301   number of ions     NIONS =     38
   non local maximal  LDIM  =      6   non local SUM 2l+1 LMDIM =     18
   total plane-waves  NPLWV = 512000
   max r-space proj   IRMAX =   2087   max aug-charges    IRDMAX=   5516
   dimension x,y,z NGX =    80 NGY =   80 NGZ =   80
   dimension x,y,z NGXF=   160 NGYF=  160 NGZF=  160
   support grid    NGXF=   160 NGYF=  160 NGZF=  160
   ions per type =              38
 NGX,Y,Z   is equivalent  to a cutoff of   7.39,  7.39,  7.39 a.u.
 NGXF,Y,Z  is equivalent  to a cutoff of  14.78, 14.78, 14.78 a.u.


 I would recommend the setting:
   dimension x,y,z NGX =    73 NGY =   73 NGZ =   73
 SYSTEM =  Pt cube particle                        
 POSCAR =  Pt                                      

 Startparameter for this run:
   NWRITE =      2    write-flag & timer
   PREC   = normal    normal or accurate (medium, high low for compatibility)
   ISTART =      0    job   : 0-new  1-cont  2-samecut
   ICHARG =      2    charge: 1-file 2-atom 10-const
   ISPIN  =      1    spin polarized calculation?
   LNONCOLLINEAR =      F non collinear calculations
   LSORBIT =      F    spin-orbit coupling
   INIWAV =      1    electr: 0-lowe 1-rand  2-diag
   LASPH  =      F    aspherical Exc in radial PAW
   METAGGA=      F    non-selfconsistent MetaGGA calc.

 Electronic Relaxation 1
   ENCUT  =  274.0 eV  20.14 Ry    4.49 a.u.  24.29 24.29 24.29*2*pi/ulx,y,z
   ENINI  =  274.0     initial cutoff
   ENAUG  =  359.0 eV  augmentation charge cutoff
   NELM   =     60;   NELMIN=  2; NELMDL=-12     # of ELM steps 
   EDIFF  = 0.1E-03   stopping-criterion for ELM
   LREAL  =      T    real-space projection
   NLSPLINE    = F    spline interpolate recip. space projectors
   LCOMPAT=      F    compatible to vasp.4.4
   GGA_COMPAT  = T    GGA compatible to vasp.4.4-vasp.4.6
   LMAXPAW     = -100 max onsite density
   LMAXMIX     =    2 max onsite mixed and CHGCAR
   VOSKOWN=      0    Vosko Wilk Nusair interpolation
   ROPT   =   -0.00050
 Ionic relaxation
   EDIFFG = -.5E-02   stopping-criterion for IOM
   NSW    =    200    number of steps for IOM
   NBLOCK =      1;   KBLOCK =    200    inner block; outer block 
   IBRION =      2    ionic relax: 0-MD 1-quasi-New 2-CG
   NFREE  =      1    steps in history (QN), initial steepest desc. (CG)
   ISIF   =      0    stress and relaxation
   IWAVPR =     11    prediction:  0-non 1-charg 2-wave 3-comb
   ISYM   =      0    0-nonsym 1-usesym 2-fastsym
   LCORR  =      T    Harris-Foulkes like correction to forces

   POTIM  = 0.1000    time-step for ionic-motion
   TEIN   =    0.0    initial temperature
   TEBEG  =    0.0;   TEEND  =   0.0 temperature during run
   SMASS  =  -3.00    Nose mass-parameter (am)
   estimated Nose-frequenzy (Omega)   =  0.10E-29 period in steps =****** mass=  -0.740E-26a.u.
   SCALEE = 1.0000    scale energy and forces
   NPACO  =    256;   APACO  = 16.0  distance and # of slots for P.C.
   PSTRESS=    0.0 pullay stress

  Mass of Ions in am
   POMASS = 195.08
  Ionic Valenz
   ZVAL   =  10.00
  Atomic Wigner-Seitz radii
   RWIGS  =  -1.00
  virtual crystal weights 
   VCA    =   1.00
   NELECT =     380.0000    total number of electrons
   NUPDOWN=      -1.0000    fix difference up-down

 DOS related values:
   EMIN   =  10.00;   EMAX   =-10.00  energy-range for DOS
   EFERMI =   0.00
   ISMEAR =     1;   SIGMA  =   0.20  broadening in eV -4-tet -1-fermi 0-gaus

 Electronic relaxation 2 (details)
   IALGO  =     48    algorithm
   LDIAG  =      T    sub-space diagonalisation (order eigenvalues)
   LSUBROT=      F    optimize rotation matrix (better conditioning)
   TURBO    =      0    0=normal 1=particle mesh
   IRESTART =      0    0=no restart 2=restart with 2 vectors
   NREBOOT  =      0    no. of reboots
   NMIN     =      0    reboot dimension
   EREF     =   0.00    reference energy to select bands
   IMIX   =      4    mixing-type and parameters
     AMIX     =   0.40;   BMIX     =  1.00
     AMIX_MAG =   1.60;   BMIX_MAG =  1.00
     AMIN     =   0.10
     WC   =   100.;   INIMIX=   1;  MIXPRE=   1;  MAXMIX= -45

 Intra band minimization:
   WEIMIN = 0.0010     energy-eigenvalue tresh-hold
   EBREAK =  0.11E-06  absolut break condition
   DEPER  =   0.30     relativ break condition  

   TIME   =   0.40     timestep for ELM

  volume/ion in A,a.u.               =     153.47      1035.69
  Fermi-wavevector in a.u.,A,eV,Ry     =   0.658765  1.244884  5.904529  0.433971
  Thomas-Fermi vector in A             =   1.730689
 
 Write flags
   LWAVE  =      F    write WAVECAR
   LCHARG =      F    write CHGCAR
   LVTOT  =      F    write LOCPOT, total local potential
   LVHAR  =      F    write LOCPOT, Hartree potential only
   LELF   =      F    write electronic localiz. function (ELF)
   LORBIT =      0    0 simple, 1 ext, 2 COOP (PROOUT)


 Dipole corrections
   LMONO  =      F    monopole corrections only (constant potential shift)
   LDIPOL =      F    correct potential (dipole corrections)
   IDIPOL =      0    1-x, 2-y, 3-z, 4-all directions 
   EPSILON=  1.0000000 bulk dielectric constant

 Exchange correlation treatment:
   GGA     =    --    GGA type
   LEXCH   =     7    internal setting for exchange type
   VOSKOWN=      0    Vosko Wilk Nusair interpolation
   LHFCALC =     F    Hartree Fock is set to
   LHFONE  =     F    Hartree Fock one center treatment
   AEXX    =    0.0000 exact exchange contribution

 Linear response parameters
   LEPSILON=     F    determine dielectric tensor
   LRPA    =     F    only Hartree local field effects (RPA)
   LNABLA  =     F    use nabla operator in PAW spheres
   LVEL    =     F    velocity operator in full k-point grid
   LINTERFAST=   F  fast interpolation
   KINTER  =     0    interpolate to denser k-point grid
   CSHIFT  =0.1000    complex shift for real part using Kramers Kronig
   OMEGAMAX=  -1.0    maximum frequency
   DEG_THRESHOLD= 0.2000000E-02 threshold for treating states as degnerate
   RTIME   =    0.100 relaxation time in fs

 Orbital magnetization related:
   ORBITALMAG=     F  switch on orbital magnetization
   LCHIMAG   =     F  perturbation theory with respect to B field
   DQ        =  0.001000  dq finite difference perturbation B field



--------------------------------------------------------------------------------------------------------


 conjugate gradient relaxation of ions
   using selective dynamics as specified on POSCAR
 charge density and potential will be updated during run
 non-spin polarized calculation
 RMM-DIIS sequential band-by-band
 perform sub-space diagonalisation
    before iterative eigenvector-optimisation
 modified Broyden-mixing scheme, WC =      100.0
 initial mixing is a Kerker type mixing with AMIX =  0.4000 and BMIX =      1.0000
 Hartree-type preconditioning will be used
 using additional bands           38
 real space projection scheme for non local part
 use partial core corrections
 calculate Harris-corrections to forces 
   (improved forces if not selfconsistent)
 use gradient corrections 
 use of overlap-Matrix (Vanderbilt PP)
 Methfessel and Paxton  Order N= 1 SIGMA  =   0.20


--------------------------------------------------------------------------------------------------------


  energy-cutoff  :      274.00
  volume of cell :     5832.00
      direct lattice vectors                 reciprocal lattice vectors
    18.000000000  0.000000000  0.000000000     0.055555556  0.000000000  0.000000000
     0.000000000 18.000000000  0.000000000     0.000000000  0.055555556  0.000000000
     0.000000000  0.000000000 18.000000000     0.000000000  0.000000000  0.055555556

  length of vectors
    18.000000000 18.000000000 18.000000000     0.055555556  0.055555556  0.055555556


 
 k-points in units of 2pi/SCALE and weight: Automatic Mesh                          
   0.00000000  0.00000000  0.00000000       1.000
 
 k-points in reciprocal lattice and weights: Automatic Mesh                          
   0.00000000  0.00000000  0.00000000       1.000
 
 position of ions in fractional coordinates (direct lattice) 
   0.72319657  0.57315667  0.49977953
   0.57315473  0.72319744  0.49977983
   0.27693045  0.57337903  0.49982336
   0.42638316  0.72297395  0.50005220
   0.27675145  0.42662606  0.49932761
   0.42662619  0.27675410  0.49932764
   0.72297448  0.42638359  0.50005288
   0.57337307  0.27692999  0.49982366
   0.66636745  0.50006756  0.61778606
   0.33335873  0.49956684  0.61757745
   0.50007026  0.66636614  0.61778518
   0.49956855  0.33335984  0.61757443
   0.64849144  0.64849166  0.60568932
   0.35187684  0.64779539  0.60619109
   0.35119617  0.35119592  0.60536243
   0.64779271  0.35187722  0.60619325
   0.66636796  0.49985397  0.38213169
   0.33368010  0.50017014  0.38181969
   0.49985674  0.66636695  0.38213169
   0.50017190  0.33368061  0.38182332
   0.64815061  0.64815097  0.39387187
   0.35156645  0.64843556  0.39359718
   0.35186858  0.35186824  0.39330721
   0.64843247  0.35156638  0.39359645
   0.57523730  0.57523785  0.70984185
   0.42529751  0.57426953  0.70986487
   0.42431457  0.42431480  0.70974921
   0.57426666  0.42529859  0.70986427
   0.57486907  0.57486908  0.28996599
   0.42505975  0.57515471  0.28969408
   0.42534762  0.42534694  0.28966091
   0.57515315  0.42505962  0.28969631
   0.49984216  0.49984017  0.60478399
   0.42587606  0.42587374  0.49976494
   0.42593947  0.57392446  0.49986202
   0.50001298  0.50001024  0.39499180
   0.57398177  0.57397963  0.49999705
   0.57392538  0.42593686  0.49986217
 
 position of ions in cartesian coordinates  (Angst):
  13.01753832 10.31682015  8.99603157
  10.31678509 13.01755392  8.99603703
   4.98474804 10.32082250  8.99682056
   7.67489690 13.01353103  9.00093960
   4.98152608  7.67926908  8.98789701
   7.67927140  4.98157384  8.98789753
  13.01354065  7.67490459  9.00095180
  10.32071522  4.98473990  8.99682595
  11.99461415  9.00121602 11.12014911
   6.00045706  8.99220304 11.11639417
   9.00126473 11.99459046 11.12013331
   8.99223388  6.00047708 11.11633980
  11.67284586 11.67284990 10.90240782
   6.33378305 11.66031709 10.91143971
   6.32153107  6.32152649 10.89652372
  11.66026874  6.33378997 10.91147856
  11.99462330  8.99737153  6.87837044
   6.00624174  9.00306260  6.87275433
   8.99742129 11.99460517  6.87837034
   9.00309416  6.00625095  6.87281974
  11.66671091 11.66671751  7.08969366
   6.32819616 11.67184013  7.08474932
   6.33363445  6.33362835  7.07952982
  11.67178444  6.32819487  7.08473616
  10.35427147 10.35428133 12.77715333
   7.65535525 10.33685147 12.77756770
   7.63766228  7.63766636 12.77548577
  10.33679982  7.65537463 12.77755692
  10.34764317 10.34764342  5.21938778
   7.65107555 10.35278475  5.21449341
   7.65625712  7.65624497  5.21389629
  10.35275674  7.65107320  5.21453350
   8.99715880  8.99712303 10.88611179
   7.66576903  7.66572729  8.99576894
   7.66691040 10.33064029  8.99751630
   9.00023363  9.00018440  7.10985244
  10.33167192 10.33163341  8.99994687
  10.33065681  7.66686354  8.99751901
 


--------------------------------------------------------------------------------------------------------


 use parallel FFT for wavefunctions z direction half grid
 k-point  1 :   0.0000 0.0000 0.0000  plane waves:   30123

 maximum and minimum number of plane-waves per node :      7537     7520

 maximum number of plane-waves:     30123
 maximum index in each direction: 
   IXMAX=   24   IYMAX=   24   IZMAX=   24
   IXMIN=  -24   IYMIN=  -24   IZMIN=    0

 WARNING: aliasing errors must be expected set NGX to  98 to avoid them
 WARNING: aliasing errors must be expected set NGY to  98 to avoid them
 WARNING: aliasing errors must be expected set NGZ to  98 to avoid them
 aliasing errors are usually negligible using standard VASP settings
 and one can safely disregard these warnings

 real space projection operators:
  total allocation   :      10557.56 KBytes
  max/ min on nodes  :       2656.55       2599.17


 parallel 3D FFT for wavefunctions:
    minimum data exchange during FFTs selected (reduces bandwidth)
 parallel 3D FFT for charge:
    minimum data exchange during FFTs selected (reduces bandwidth)


 total amount of memory used by VASP on root node    97276. kBytes
========================================================================

   base      :      30000. kBytes
   nonlr-proj:       3251. kBytes
   fftplans  :      20116. kBytes
   grid      :      29926. kBytes
   one-center:         77. kBytes
   wavefun   :      13906. kBytes
 
     INWAV:  cpu time    0.0000: real time    0.0001
 Broyden mixing: mesh for mixing (old mesh)
   NGX = 49   NGY = 49   NGZ = 49
  (NGX  =160   NGY  =160   NGZ  =160)
  gives a total of 117649 points

 initial charge density was supplied:
 charge density of overlapping atoms calculated
 number of electron     380.0000000 magnetization 
 keeping initial charge density in first step


--------------------------------------------------------------------------------------------------------


 Maximum index for non-local projection operator          513
 Maximum index for augmentation-charges          685 (set IRDMAX)


--------------------------------------------------------------------------------------------------------


 First call to EWALD:  gamma=   0.098
 Maximum number of real-space cells 3x 3x 3
 Maximum number of reciprocal cells 3x 3x 3

 FEWALD executed in parallel
    FEWALD:  cpu time    0.0070: real time    0.0067


----------------------------------------- Iteration    1(   1)  ---------------------------------------


    POTLOK:  cpu time    2.2137: real time    2.2149
    SETDIJ:  cpu time    0.0200: real time    0.0201
    EDDIAG:  cpu time    2.8886: real time    2.8919
  RMM-DIIS:  cpu time    6.5930: real time    6.5947
    ORTHCH:  cpu time    0.2760: real time    0.2759
       DOS:  cpu time    0.0010: real time    0.0010
    --------------------------------------------
      LOOP:  cpu time   11.9952: real time   12.0034

 eigenvalue-minimisations  :   228
 total energy-change (2. order) : 0.4702151E+04  (-0.6957250E+04)
 number of electron     380.0000000 magnetization 
 augmentation part      380.0000000 magnetization 

 Free energy of the ion-electron system (eV)
  ---------------------------------------------------
  alpha Z        PSCENC =       359.13074794
  Ewald energy   TEWEN  =     67126.92535035
  -Hartree energ DENC   =    -94083.59087270
  -exchange      EXHF   =         0.00000000
  -V(xc)+E(xc)   XCENC  =        94.76277483
  PAW double counting   =     21791.31347945   -20711.90458497
  entropy T*S    EENTRO =        -0.02405365
  eigenvalues    EBANDS =      2385.82836442
  atomic energy  EATOM  =     27739.70997598
  Solvation  Ediel_sol  =         0.00000000
  ---------------------------------------------------
  free energy    TOTEN  =      4702.15118164 eV

  energy without entropy =     4702.17523529  energy(sigma->0) =     4702.15919952


--------------------------------------------------------------------------------------------------------




----------------------------------------- Iteration    1(   2)  ---------------------------------------


    EDDIAG:  cpu time    2.9436: real time    2.9448
  RMM-DIIS:  cpu time    6.5940: real time    6.5958
    ORTHCH:  cpu time    0.2780: real time    0.2777
       DOS:  cpu time    0.0010: real time    0.0011
    --------------------------------------------
      LOOP:  cpu time    9.8195: real time    9.8241

 eigenvalue-minimisations  :   228
 total energy-change (2. order) :-0.2024915E+04  (-0.2243044E+04)
 number of electron     380.0000000 magnetization 
 augmentation part      380.0000000 magnetization 

 Free energy of the ion-electron system (eV)
  ---------------------------------------------------
  alpha Z        PSCENC =       359.13074794
  Ewald energy   TEWEN  =     67126.92535035
  -Hartree energ DENC   =    -94083.59087270
  -exchange      EXHF   =         0.00000000
  -V(xc)+E(xc)   XCENC  =        94.76277483
  PAW double counting   =     21791.31347945   -20711.90458497
  entropy T*S    EENTRO =         0.02605510
  eigenvalues    EBANDS =       360.86290527
  atomic energy  EATOM  =     27739.70997598
  Solvation  Ediel_sol  =         0.00000000
  ---------------------------------------------------
  free energy    TOTEN  =      2677.23583125 eV

  energy without entropy =     2677.20977615  energy(sigma->0) =     2677.22714622


--------------------------------------------------------------------------------------------------------




----------------------------------------- Iteration    1(   3)  ---------------------------------------


    EDDIAG:  cpu time    2.9136: real time    2.9160
  RMM-DIIS:  cpu time    6.5760: real time    6.5826
    ORTHCH:  cpu time    0.2740: real time    0.2754
       DOS:  cpu time    0.0020: real time    0.0013
    --------------------------------------------
      LOOP:  cpu time    9.7685: real time    9.7799

 eigenvalue-minimisations  :   228
 total energy-change (2. order) :-0.9205675E+03  (-0.1205621E+04)
 number of electron     380.0000000 magnetization 
 augmentation part      380.0000000 magnetization 

 Free energy of the ion-electron system (eV)
  ---------------------------------------------------
  alpha Z        PSCENC =       359.13074794
  Ewald energy   TEWEN  =     67126.92535035
  -Hartree energ DENC   =    -94083.59087270
  -exchange      EXHF   =         0.00000000
  -V(xc)+E(xc)   XCENC  =        94.76277483
  PAW double counting   =     21791.31347945   -20711.90458497
  entropy T*S    EENTRO =        -0.03730169
  eigenvalues    EBANDS =      -559.64124139
  atomic energy  EATOM  =     27739.70997598
  Solvation  Ediel_sol  =         0.00000000
  ---------------------------------------------------
  free energy    TOTEN  =      1756.66832780 eV

  energy without entropy =     1756.70562949  energy(sigma->0) =     1756.68076170


--------------------------------------------------------------------------------------------------------




----------------------------------------- Iteration    1(   4)  ---------------------------------------


    EDDIAG:  cpu time    2.9086: real time    2.9102
  RMM-DIIS:  cpu time    6.5860: real time    6.5866
    ORTHCH:  cpu time    0.2780: real time    0.2783
       DOS:  cpu time    0.0010: real time    0.0011
    --------------------------------------------
      LOOP:  cpu time    9.7775: real time    9.7828

 eigenvalue-minimisations  :   228
 total energy-change (2. order) :-0.7150681E+03  (-0.7725825E+03)
 number of electron     380.0000000 magnetization 
 augmentation part      380.0000000 magnetization 

 Free energy of the ion-electron system (eV)
  ---------------------------------------------------
  alpha Z        PSCENC =       359.13074794
  Ewald energy   TEWEN  =     67126.92535035
  -Hartree energ DENC   =    -94083.59087270
  -exchange      EXHF   =         0.00000000
  -V(xc)+E(xc)   XCENC  =        94.76277483
  PAW double counting   =     21791.31347945   -20711.90458497
  entropy T*S    EENTRO =         0.09876931
  eigenvalues    EBANDS =     -1274.84541834
  atomic energy  EATOM  =     27739.70997598
  Solvation  Ediel_sol  =         0.00000000
  ---------------------------------------------------
  free energy    TOTEN  =      1041.60022185 eV

  energy without entropy =     1041.50145254  energy(sigma->0) =     1041.56729875


--------------------------------------------------------------------------------------------------------




----------------------------------------- Iteration    1(   5)  ---------------------------------------


    EDDIAG:  cpu time    2.9436: real time    2.9447
  RMM-DIIS:  cpu time    6.5870: real time    6.5894
    ORTHCH:  cpu time    0.2820: real time    0.2817
       DOS:  cpu time    0.0010: real time    0.0012
    --------------------------------------------
      LOOP:  cpu time    9.8145: real time    9.8198

 eigenvalue-minimisations  :   228
 total energy-change (2. order) :-0.4540519E+03  (-0.4236103E+03)
 number of electron     380.0000000 magnetization 
 augmentation part      380.0000000 magnetization 

 Free energy of the ion-electron system (eV)
  ---------------------------------------------------
  alpha Z        PSCENC =       359.13074794
  Ewald energy   TEWEN  =     67126.92535035
  -Hartree energ DENC   =    -94083.59087270
  -exchange      EXHF   =         0.00000000
  -V(xc)+E(xc)   XCENC  =        94.76277483
  PAW double counting   =     21791.31347945   -20711.90458497
  entropy T*S    EENTRO =        -0.00169309
  eigenvalues    EBANDS =     -1728.79684221
  atomic energy  EATOM  =     27739.70997598
  Solvation  Ediel_sol  =         0.00000000
  ---------------------------------------------------
  free energy    TOTEN  =       587.54833557 eV

  energy without entropy =      587.55002866  energy(sigma->0) =      587.54889994


--------------------------------------------------------------------------------------------------------




----------------------------------------- Iteration    1(   6)  ---------------------------------------


    EDDIAG:  cpu time    2.9406: real time    2.9413
  RMM-DIIS:  cpu time    6.6080: real time    6.6128
    ORTHCH:  cpu time    0.2750: real time    0.2751
       DOS:  cpu time    0.0020: real time    0.0013
    --------------------------------------------
      LOOP:  cpu time    9.8265: real time    9.8335

 eigenvalue-minimisations  :   228
 total energy-change (2. order) :-0.3071772E+03  (-0.2622841E+03)
 number of electron     380.0000000 magnetization 
 augmentation part      380.0000000 magnetization 

 Free energy of the ion-electron system (eV)
  ---------------------------------------------------
  alpha Z        PSCENC =       359.13074794
  Ewald energy   TEWEN  =     67126.92535035
  -Hartree energ DENC   =    -94083.59087270
  -exchange      EXHF   =         0.00000000
  -V(xc)+E(xc)   XCENC  =        94.76277483
  PAW double counting   =     21791.31347945   -20711.90458497
  entropy T*S    EENTRO =        -0.08817004
  eigenvalues    EBANDS =     -2035.88755232
  atomic energy  EATOM  =     27739.70997598
  Solvation  Ediel_sol  =         0.00000000
  ---------------------------------------------------
  free energy    TOTEN  =       280.37114851 eV

  energy without entropy =      280.45931855  energy(sigma->0) =      280.40053852


--------------------------------------------------------------------------------------------------------




----------------------------------------- Iteration    1(   7)  ---------------------------------------


    EDDIAG:  cpu time    2.9196: real time    2.9219
  RMM-DIIS:  cpu time    6.5800: real time    6.5823
    ORTHCH:  cpu time    0.2760: real time    0.2759
       DOS:  cpu time    0.0010: real time    0.0012
    --------------------------------------------
      LOOP:  cpu time    9.7805: real time    9.7864

 eigenvalue-minimisations  :   228
 total energy-change (2. order) :-0.1727705E+03  (-0.1476152E+03)
 number of electron     380.0000000 magnetization 
 augmentation part      380.0000000 magnetization 

 Free energy of the ion-electron system (eV)
  ---------------------------------------------------
  alpha Z        PSCENC =       359.13074794
  Ewald energy   TEWEN  =     67126.92535035
  -Hartree energ DENC   =    -94083.59087270
  -exchange      EXHF   =         0.00000000
  -V(xc)+E(xc)   XCENC  =        94.76277483
  PAW double counting   =     21791.31347945   -20711.90458497
  entropy T*S    EENTRO =        -0.04980005
  eigenvalues    EBANDS =     -2208.69637472
  atomic energy  EATOM  =     27739.70997598
  Solvation  Ediel_sol  =         0.00000000
  ---------------------------------------------------
  free energy    TOTEN  =       107.60069611 eV

  energy without entropy =      107.65049616  energy(sigma->0) =      107.61729613


--------------------------------------------------------------------------------------------------------




----------------------------------------- Iteration    1(   8)  ---------------------------------------


    EDDIAG:  cpu time    2.9286: real time    2.9288
  RMM-DIIS:  cpu time    6.5770: real time    6.5791
    ORTHCH:  cpu time    0.2810: real time    0.2803
       DOS:  cpu time    0.0010: real time    0.0011
    --------------------------------------------
      LOOP:  cpu time    9.7905: real time    9.7945

 eigenvalue-minimisations  :   228
 total energy-change (2. order) :-0.1230884E+03  (-0.9849048E+02)
 number of electron     380.0000000 magnetization 
 augmentation part      380.0000000 magnetization 

 Free energy of the ion-electron system (eV)
  ---------------------------------------------------
  alpha Z        PSCENC =       359.13074794
  Ewald energy   TEWEN  =     67126.92535035
  -Hartree energ DENC   =    -94083.59087270
  -exchange      EXHF   =         0.00000000
  -V(xc)+E(xc)   XCENC  =        94.76277483
  PAW double counting   =     21791.31347945   -20711.90458497
  entropy T*S    EENTRO =        -0.03287175
  eigenvalues    EBANDS =     -2331.80171348
  atomic energy  EATOM  =     27739.70997598
  Solvation  Ediel_sol  =         0.00000000
  ---------------------------------------------------
  free energy    TOTEN  =       -15.48771436 eV

  energy without entropy =      -15.45484261  energy(sigma->0) =      -15.47675711


--------------------------------------------------------------------------------------------------------




----------------------------------------- Iteration    1(   9)  ---------------------------------------


    EDDIAG:  cpu time    2.9146: real time    2.9172
  RMM-DIIS:  cpu time   17.1624: real time   17.1689
    ORTHCH:  cpu time    0.2780: real time    0.2780
       DOS:  cpu time    0.0010: real time    0.0012
    --------------------------------------------
      LOOP:  cpu time   20.3579: real time   20.3682

 eigenvalue-minimisations  :   630
 total energy-change (2. order) :-0.1018690E+03  (-0.9575850E+02)
 number of electron     380.0000000 magnetization 
 augmentation part      380.0000000 magnetization 

 Free energy of the ion-electron system (eV)
  ---------------------------------------------------
  alpha Z        PSCENC =       359.13074794
  Ewald energy   TEWEN  =     67126.92535035
  -Hartree energ DENC   =    -94083.59087270
  -exchange      EXHF   =         0.00000000
  -V(xc)+E(xc)   XCENC  =        94.76277483
  PAW double counting   =     21791.31347945   -20711.90458497
  entropy T*S    EENTRO =        -0.17345213
  eigenvalues    EBANDS =     -2433.53011229
  atomic energy  EATOM  =     27739.70997598
  Solvation  Ediel_sol  =         0.00000000
  ---------------------------------------------------
  free energy    TOTEN  =      -117.35669354 eV

  energy without entropy =     -117.18324141  energy(sigma->0) =     -117.29887617


--------------------------------------------------------------------------------------------------------




----------------------------------------- Iteration    1(  10)  ---------------------------------------


    EDDIAG:  cpu time    2.9096: real time    2.9112
  RMM-DIIS:  cpu time   19.3971: real time   19.4065
    ORTHCH:  cpu time    0.2780: real time    0.2773
       DOS:  cpu time    0.0010: real time    0.0012
    --------------------------------------------
      LOOP:  cpu time   22.5886: real time   22.6019

 eigenvalue-minimisations  :   719
 total energy-change (2. order) :-0.4487797E+02  (-0.4158755E+02)
 number of electron     380.0000000 magnetization 
 augmentation part      380.0000000 magnetization 

 Free energy of the ion-electron system (eV)
  ---------------------------------------------------
  alpha Z        PSCENC =       359.13074794
  Ewald energy   TEWEN  =     67126.92535035
  -Hartree energ DENC   =    -94083.59087270
  -exchange      EXHF   =         0.00000000
  -V(xc)+E(xc)   XCENC  =        94.76277483
  PAW double counting   =     21791.31347945   -20711.90458497
  entropy T*S    EENTRO =        -0.01177768
  eigenvalues    EBANDS =     -2478.56975851
  atomic energy  EATOM  =     27739.70997598
  Solvation  Ediel_sol  =         0.00000000
  ---------------------------------------------------
  free energy    TOTEN  =      -162.23466531 eV

  energy without entropy =     -162.22288763  energy(sigma->0) =     -162.23073942


--------------------------------------------------------------------------------------------------------




----------------------------------------- Iteration    1(  11)  ---------------------------------------


    EDDIAG:  cpu time    2.9106: real time    2.9141
  RMM-DIIS:  cpu time   20.1149: real time   20.1219
    ORTHCH:  cpu time    0.2770: real time    0.2770
       DOS:  cpu time    0.0010: real time    0.0012
    --------------------------------------------
      LOOP:  cpu time   23.3065: real time   23.3179

 eigenvalue-minimisations  :   745
 total energy-change (2. order) :-0.2068574E+02  (-0.1777272E+02)
 number of electron     380.0000000 magnetization 
 augmentation part      380.0000000 magnetization 

 Free energy of the ion-electron system (eV)
  ---------------------------------------------------
  alpha Z        PSCENC =       359.13074794
  Ewald energy   TEWEN  =     67126.92535035
  -Hartree energ DENC   =    -94083.59087270
  -exchange      EXHF   =         0.00000000
  -V(xc)+E(xc)   XCENC  =        94.76277483
  PAW double counting   =     21791.31347945   -20711.90458497
  entropy T*S    EENTRO =        -0.01624255
  eigenvalues    EBANDS =     -2499.25102922
  atomic energy  EATOM  =     27739.70997598
  Solvation  Ediel_sol  =         0.00000000
  ---------------------------------------------------
  free energy    TOTEN  =      -182.92040089 eV

  energy without entropy =     -182.90415834  energy(sigma->0) =     -182.91498671


--------------------------------------------------------------------------------------------------------




----------------------------------------- Iteration    1(  12)  ---------------------------------------


    EDDIAG:  cpu time    2.9126: real time    2.9149
  RMM-DIIS:  cpu time   20.2709: real time   20.2798
    ORTHCH:  cpu time    0.2790: real time    0.2782
       DOS:  cpu time    0.0010: real time    0.0012
    CHARGE:  cpu time    1.1098: real time    1.1101
    MIXING:  cpu time    0.0500: real time    0.0500
    --------------------------------------------
      LOOP:  cpu time   24.6283: real time   24.6403

 eigenvalue-minimisations  :   747
 total energy-change (2. order) :-0.8846214E+01  (-0.7998474E+01)
 number of electron     379.9999393 magnetization 
 augmentation part      112.3964818 magnetization 

 Broyden mixing:
  rms(total) = 0.21368E+01    rms(broyden)= 0.21341E+01
  rms(prec ) = 0.24076E+01
  weight for this iteration     100.00

 Free energy of the ion-electron system (eV)
  ---------------------------------------------------
  alpha Z        PSCENC =       359.13074794
  Ewald energy   TEWEN  =     67126.92535035
  -Hartree energ DENC   =    -94083.59087270
  -exchange      EXHF   =         0.00000000
  -V(xc)+E(xc)   XCENC  =        94.76277483
  PAW double counting   =     21791.31347945   -20711.90458497
  entropy T*S    EENTRO =        -0.09088600
  eigenvalues    EBANDS =     -2508.02259963
  atomic energy  EATOM  =     27739.70997598
  Solvation  Ediel_sol  =         0.00000000
  ---------------------------------------------------
  free energy    TOTEN  =      -191.76661475 eV

  energy without entropy =     -191.67572876  energy(sigma->0) =     -191.73631942


--------------------------------------------------------------------------------------------------------




----------------------------------------- Iteration    1(  13)  ---------------------------------------


    POTLOK:  cpu time    2.1467: real time    2.1471
    SETDIJ:  cpu time    0.0210: real time    0.0211
    EDDIAG:  cpu time    2.8996: real time    2.8997
  RMM-DIIS:  cpu time   13.7119: real time   13.7192
    ORTHCH:  cpu time    0.2810: real time    0.2809
       DOS:  cpu time    0.0010: real time    0.0012
    CHARGE:  cpu time    1.0798: real time    1.0792
    MIXING:  cpu time    0.0500: real time    0.0508
    --------------------------------------------
      LOOP:  cpu time   20.1919: real time   20.2033

 eigenvalue-minimisations  :   507
 total energy-change (2. order) : 0.8226916E+01  (-0.6348476E+01)
 number of electron     379.9999362 magnetization 
 augmentation part      117.1208740 magnetization 

 Broyden mixing:
  rms(total) = 0.87447E+00    rms(broyden)= 0.87365E+00
  rms(prec ) = 0.10430E+01
  weight for this iteration     100.00

 eigenvalues of (default mixing * dielectric matrix)
  average eigenvalue GAMMA=   1.2488
  1.2488

 Free energy of the ion-electron system (eV)
  ---------------------------------------------------
  alpha Z        PSCENC =       359.13074794
  Ewald energy   TEWEN  =     67126.92535035
  -Hartree energ DENC   =    -93785.92902394
  -exchange      EXHF   =         0.00000000
  -V(xc)+E(xc)   XCENC  =        85.29915295
  PAW double counting   =     21719.19560552   -20684.68129376
  entropy T*S    EENTRO =        -0.04166213
  eigenvalues    EBANDS =     -2743.14855138
  atomic energy  EATOM  =     27739.70997598
  Solvation  Ediel_sol  =         0.00000000
  ---------------------------------------------------
  free energy    TOTEN  =      -183.53969848 eV

  energy without entropy =     -183.49803635  energy(sigma->0) =     -183.52581111


--------------------------------------------------------------------------------------------------------




----------------------------------------- Iteration    1(  14)  ---------------------------------------


    POTLOK:  cpu time    2.1287: real time    2.1300
    SETDIJ:  cpu time    0.0210: real time    0.0210
    EDDIAG:  cpu time    2.9036: real time    2.9036
  RMM-DIIS:  cpu time   15.4936: real time   15.4995
    ORTHCH:  cpu time    0.2790: real time    0.2799
       DOS:  cpu time    0.0020: real time    0.0012
    CHARGE:  cpu time    1.1078: real time    1.1086
    MIXING:  cpu time    0.0530: real time    0.0521
    --------------------------------------------
      LOOP:  cpu time   21.9907: real time   22.0001

 eigenvalue-minimisations  :   573
 total energy-change (2. order) :-0.2242175E+01  (-0.3922633E+01)
 number of electron     379.9999347 magnetization 
 augmentation part      119.1500354 magnetization 

 Broyden mixing:
  rms(total) = 0.71679E+00    rms(broyden)= 0.71578E+00
  rms(prec ) = 0.10230E+01
  weight for this iteration     100.00

 eigenvalues of (default mixing * dielectric matrix)
  average eigenvalue GAMMA=   0.9164
  1.3467  0.4861

 Free energy of the ion-electron system (eV)
  ---------------------------------------------------
  alpha Z        PSCENC =       359.13074794
  Ewald energy   TEWEN  =     67126.92535035
  -Hartree energ DENC   =    -93741.46642392
  -exchange      EXHF   =         0.00000000
  -V(xc)+E(xc)   XCENC  =        82.27545807
  PAW double counting   =     21900.92017439   -20890.07437505
  entropy T*S    EENTRO =        -0.13811740
  eigenvalues    EBANDS =     -2763.06466384
  atomic energy  EATOM  =     27739.70997598
  Solvation  Ediel_sol  =         0.00000000
  ---------------------------------------------------
  free energy    TOTEN  =      -185.78187348 eV

  energy without entropy =     -185.64375608  energy(sigma->0) =     -185.73583435


--------------------------------------------------------------------------------------------------------




----------------------------------------- Iteration    1(  15)  ---------------------------------------


    POTLOK:  cpu time    2.1087: real time    2.1103
    SETDIJ:  cpu time    0.0210: real time    0.0208
    EDDIAG:  cpu time    2.8776: real time    2.8791
  RMM-DIIS:  cpu time   16.0856: real time   16.0913
    ORTHCH:  cpu time    0.2750: real time    0.2742
       DOS:  cpu time    0.0010: real time    0.0013
    CHARGE:  cpu time    1.0878: real time    1.0885
    MIXING:  cpu time    0.0520: real time    0.0528
    --------------------------------------------
      LOOP:  cpu time   22.5116: real time   22.5227

 eigenvalue-minimisations  :   593
 total energy-change (2. order) : 0.2584697E-01  (-0.1607204E+01)
 number of electron     379.9999342 magnetization 
 augmentation part      119.7691403 magnetization 

 Broyden mixing:
  rms(total) = 0.41601E+00    rms(broyden)= 0.41497E+00
  rms(prec ) = 0.49895E+00
  weight for this iteration     100.00

 eigenvalues of (default mixing * dielectric matrix)
  average eigenvalue GAMMA=   0.8152
  1.2507  0.8118  0.3831

 Free energy of the ion-electron system (eV)
  ---------------------------------------------------
  alpha Z        PSCENC =       359.13074794
  Ewald energy   TEWEN  =     67126.92535035
  -Hartree energ DENC   =    -93745.47888766
  -exchange      EXHF   =         0.00000000
  -V(xc)+E(xc)   XCENC  =        82.07352303
  PAW double counting   =     22021.09215442   -21016.62725088
  entropy T*S    EENTRO =        -0.18813422
  eigenvalues    EBANDS =     -2752.39350548
  atomic energy  EATOM  =     27739.70997598
  Solvation  Ediel_sol  =         0.00000000
  ---------------------------------------------------
  free energy    TOTEN  =      -185.75602652 eV

  energy without entropy =     -185.56789230  energy(sigma->0) =     -185.69331511


--------------------------------------------------------------------------------------------------------




----------------------------------------- Iteration    1(  16)  ---------------------------------------


    POTLOK:  cpu time    2.1167: real time    2.1182
    SETDIJ:  cpu time    0.0200: real time    0.0207
    EDDIAG:  cpu time    2.9006: real time    2.9013
  RMM-DIIS:  cpu time   16.4505: real time   16.4655
    ORTHCH:  cpu time    0.2830: real time    0.2825
       DOS:  cpu time    0.0010: real time    0.0013
    CHARGE:  cpu time    1.0548: real time    1.0550
    MIXING:  cpu time    0.0540: real time    0.0541
    --------------------------------------------
      LOOP:  cpu time   22.8825: real time   22.9031

 eigenvalue-minimisations  :   606
 total energy-change (2. order) :-0.7224440E+00  (-0.7925613E+00)
 number of electron     379.9999342 magnetization 
 augmentation part      119.7702504 magnetization 

 Broyden mixing:
  rms(total) = 0.34422E+00    rms(broyden)= 0.34362E+00
  rms(prec ) = 0.39237E+00
  weight for this iteration     100.00

 eigenvalues of (default mixing * dielectric matrix)
  average eigenvalue GAMMA=   0.8116
  1.2225  1.2225  0.4198  0.3818

 Free energy of the ion-electron system (eV)
  ---------------------------------------------------
  alpha Z        PSCENC =       359.13074794
  Ewald energy   TEWEN  =     67126.92535035
  -Hartree energ DENC   =    -93763.80664679
  -exchange      EXHF   =         0.00000000
  -V(xc)+E(xc)   XCENC  =        82.55746855
  PAW double counting   =     22126.30990614   -21123.55864385
  entropy T*S    EENTRO =        -0.18313059
  eigenvalues    EBANDS =     -2733.56349823
  atomic energy  EATOM  =     27739.70997598
  Solvation  Ediel_sol  =         0.00000000
  ---------------------------------------------------
  free energy    TOTEN  =      -186.47847051 eV

  energy without entropy =     -186.29533992  energy(sigma->0) =     -186.41742698


--------------------------------------------------------------------------------------------------------




----------------------------------------- Iteration    1(  17)  ---------------------------------------


    POTLOK:  cpu time    2.1067: real time    2.1078
    SETDIJ:  cpu time    0.0210: real time    0.0206
    EDDIAG:  cpu time    2.9166: real time    2.9190
  RMM-DIIS:  cpu time   15.3237: real time   15.3401
    ORTHCH:  cpu time    0.2820: real time    0.2816
       DOS:  cpu time    0.0010: real time    0.0013
    CHARGE:  cpu time    1.0818: real time    1.0816
    MIXING:  cpu time    0.0560: real time    0.0565
    --------------------------------------------
      LOOP:  cpu time   21.7907: real time   21.8130

 eigenvalue-minimisations  :   568
 total energy-change (2. order) :-0.3643439E+00  (-0.3315401E+00)
 number of electron     379.9999341 magnetization 
 augmentation part      119.5143968 magnetization 

 Broyden mixing:
  rms(total) = 0.29385E+00    rms(broyden)= 0.29339E+00
  rms(prec ) = 0.34673E+00
  weight for this iteration     100.00

 eigenvalues of (default mixing * dielectric matrix)
  average eigenvalue GAMMA=   0.8003
  1.2797  1.2797  0.3122  0.5650  0.5650

 Free energy of the ion-electron system (eV)
  ---------------------------------------------------
  alpha Z        PSCENC =       359.13074794
  Ewald energy   TEWEN  =     67126.92535035
  -Hartree energ DENC   =    -93790.67444183
  -exchange      EXHF   =         0.00000000
  -V(xc)+E(xc)   XCENC  =        83.03259650
  PAW double counting   =     22237.69466046   -21236.26718029
  entropy T*S    EENTRO =        -0.16138361
  eigenvalues    EBANDS =     -2706.23313987
  atomic energy  EATOM  =     27739.70997598
  Solvation  Ediel_sol  =         0.00000000
  ---------------------------------------------------
  free energy    TOTEN  =      -186.84281438 eV

  energy without entropy =     -186.68143076  energy(sigma->0) =     -186.78901984


--------------------------------------------------------------------------------------------------------




----------------------------------------- Iteration    1(  18)  ---------------------------------------


    POTLOK:  cpu time    2.1107: real time    2.1116
    SETDIJ:  cpu time    0.0200: real time    0.0206
    EDDIAG:  cpu time    2.8956: real time    2.8960
  RMM-DIIS:  cpu time   15.6526: real time   15.6576
    ORTHCH:  cpu time    0.2790: real time    0.2791
       DOS:  cpu time    0.0010: real time    0.0013
    CHARGE:  cpu time    1.0888: real time    1.0886
    MIXING:  cpu time    0.0580: real time    0.0578
    --------------------------------------------
      LOOP:  cpu time   22.1066: real time   22.1162

 eigenvalue-minimisations  :   578
 total energy-change (2. order) :-0.1615121E+00  (-0.1617165E+00)
 number of electron     379.9999343 magnetization 
 augmentation part      119.4370472 magnetization 

 Broyden mixing:
  rms(total) = 0.23541E+00    rms(broyden)= 0.23498E+00
  rms(prec ) = 0.29308E+00
  weight for this iteration     100.00

 eigenvalues of (default mixing * dielectric matrix)
  average eigenvalue GAMMA=   0.8922
  1.7497  1.2329  1.2329  0.4841  0.4006  0.2528

 Free energy of the ion-electron system (eV)
  ---------------------------------------------------
  alpha Z        PSCENC =       359.13074794
  Ewald energy   TEWEN  =     67126.92535035
  -Hartree energ DENC   =    -93804.51960689
  -exchange      EXHF   =         0.00000000
  -V(xc)+E(xc)   XCENC  =        83.26007510
  PAW double counting   =     22315.08558264   -21315.08476310
  entropy T*S    EENTRO =        -0.12655476
  eigenvalues    EBANDS =     -2691.38513371
  atomic energy  EATOM  =     27739.70997598
  Solvation  Ediel_sol  =         0.00000000
  ---------------------------------------------------
  free energy    TOTEN  =      -187.00432645 eV

  energy without entropy =     -186.87777169  energy(sigma->0) =     -186.96214153


--------------------------------------------------------------------------------------------------------




----------------------------------------- Iteration    1(  19)  ---------------------------------------


    POTLOK:  cpu time    2.1217: real time    2.1238
    SETDIJ:  cpu time    0.0210: real time    0.0207
    EDDIAG:  cpu time    2.8826: real time    2.8850
  RMM-DIIS:  cpu time   15.7396: real time   15.7472
    ORTHCH:  cpu time    0.2750: real time    0.2751
       DOS:  cpu time    0.0020: real time    0.0014
    CHARGE:  cpu time    1.0888: real time    1.0907
    MIXING:  cpu time    0.0590: real time    0.0588
    --------------------------------------------
      LOOP:  cpu time   22.1906: real time   22.2065

 eigenvalue-minimisations  :   580
 total energy-change (2. order) :-0.1431336E+00  (-0.9097548E-01)
 number of electron     379.9999341 magnetization 
 augmentation part      119.6778329 magnetization 

 Broyden mixing:
  rms(total) = 0.24234E+00    rms(broyden)= 0.24192E+00
  rms(prec ) = 0.35065E+00
  weight for this iteration     100.00

 eigenvalues of (default mixing * dielectric matrix)
  average eigenvalue GAMMA=   0.8525
  1.7705  1.3276  1.3276  0.5034  0.5034  0.3074  0.2274

 Free energy of the ion-electron system (eV)
  ---------------------------------------------------
  alpha Z        PSCENC =       359.13074794
  Ewald energy   TEWEN  =     67126.92535035
  -Hartree energ DENC   =    -93807.09207965
  -exchange      EXHF   =         0.00000000
  -V(xc)+E(xc)   XCENC  =        83.22581642
  PAW double counting   =     22370.35273584   -21372.22295406
  entropy T*S    EENTRO =        -0.12301895
  eigenvalues    EBANDS =     -2687.05403395
  atomic energy  EATOM  =     27739.70997598
  Solvation  Ediel_sol  =         0.00000000
  ---------------------------------------------------
  free energy    TOTEN  =      -187.14746009 eV

  energy without entropy =     -187.02444114  energy(sigma->0) =     -187.10645377


--------------------------------------------------------------------------------------------------------




----------------------------------------- Iteration    1(  20)  ---------------------------------------


    POTLOK:  cpu time    2.1197: real time    2.1213
    SETDIJ:  cpu time    0.0210: real time    0.0209
    EDDIAG:  cpu time    2.8566: real time    2.8586
  RMM-DIIS:  cpu time   14.3948: real time   14.4045
    ORTHCH:  cpu time    0.2800: real time    0.2809
       DOS:  cpu time    0.0010: real time    0.0013
    CHARGE:  cpu time    1.1058: real time    1.1067
    MIXING:  cpu time    0.0610: real time    0.0610
    --------------------------------------------
      LOOP:  cpu time   20.8438: real time   20.8594

 eigenvalue-minimisations  :   532
 total energy-change (2. order) :-0.1654006E-01  (-0.6695127E-01)
 number of electron     379.9999337 magnetization 
 augmentation part      119.5735772 magnetization 

 Broyden mixing:
  rms(total) = 0.12834E+00    rms(broyden)= 0.12786E+00
  rms(prec ) = 0.15862E+00
  weight for this iteration     100.00

 eigenvalues of (default mixing * dielectric matrix)
  average eigenvalue GAMMA=   0.8465
  1.5938  1.5938  1.4418  0.7587  0.4491  0.4491  0.2764  0.2090

 Free energy of the ion-electron system (eV)
  ---------------------------------------------------
  alpha Z        PSCENC =       359.13074794
  Ewald energy   TEWEN  =     67126.92535035
  -Hartree energ DENC   =    -93818.25523245
  -exchange      EXHF   =         0.00000000
  -V(xc)+E(xc)   XCENC  =        83.38640065
  PAW double counting   =     22410.53123229   -21412.69793616
  entropy T*S    EENTRO =        -0.10681480
  eigenvalues    EBANDS =     -2675.78772394
  atomic energy  EATOM  =     27739.70997598
  Solvation  Ediel_sol  =         0.00000000
  ---------------------------------------------------
  free energy    TOTEN  =      -187.16400015 eV

  energy without entropy =     -187.05718534  energy(sigma->0) =     -187.12839521


--------------------------------------------------------------------------------------------------------




----------------------------------------- Iteration    1(  21)  ---------------------------------------


    POTLOK:  cpu time    2.1227: real time    2.1253
    SETDIJ:  cpu time    0.0210: real time    0.0206
    EDDIAG:  cpu time    2.9126: real time    2.9141
  RMM-DIIS:  cpu time   15.1917: real time   15.2007
    ORTHCH:  cpu time    0.2800: real time    0.2797
       DOS:  cpu time    0.0010: real time    0.0012
    CHARGE:  cpu time    1.1008: real time    1.1010
    MIXING:  cpu time    0.0630: real time    0.0628
    --------------------------------------------
      LOOP:  cpu time   21.6937: real time   21.7106

 eigenvalue-minimisations  :   557
 total energy-change (2. order) :-0.1380809E-01  (-0.2211615E-01)
 number of electron     379.9999337 magnetization 
 augmentation part      119.5272681 magnetization 

 Broyden mixing:
  rms(total) = 0.10832E+00    rms(broyden)= 0.10818E+00
  rms(prec ) = 0.13872E+00
  weight for this iteration     100.00

 eigenvalues of (default mixing * dielectric matrix)
  average eigenvalue GAMMA=   0.8320
  1.7452  1.7452  1.3260  0.8605  0.4922  0.4922  0.3503  0.2749  0.2017

 Free energy of the ion-electron system (eV)
  ---------------------------------------------------
  alpha Z        PSCENC =       359.13074794
  Ewald energy   TEWEN  =     67126.92535035
  -Hartree energ DENC   =    -93827.03469430
  -exchange      EXHF   =         0.00000000
  -V(xc)+E(xc)   XCENC  =        83.51381362
  PAW double counting   =     22431.78738327   -21433.83672968
  entropy T*S    EENTRO =        -0.09500009
  eigenvalues    EBANDS =     -2667.27865532
  atomic energy  EATOM  =     27739.70997598
  Solvation  Ediel_sol  =         0.00000000
  ---------------------------------------------------
  free energy    TOTEN  =      -187.17780823 eV

  energy without entropy =     -187.08280814  energy(sigma->0) =     -187.14614154


--------------------------------------------------------------------------------------------------------




----------------------------------------- Iteration    1(  22)  ---------------------------------------


    POTLOK:  cpu time    2.1287: real time    2.1302
    SETDIJ:  cpu time    0.0200: real time    0.0207
    EDDIAG:  cpu time    2.8976: real time    2.8994
  RMM-DIIS:  cpu time   14.4718: real time   14.4769
    ORTHCH:  cpu time    0.2800: real time    0.2803
       DOS:  cpu time    0.0010: real time    0.0012
    CHARGE:  cpu time    1.1528: real time    1.1544
    MIXING:  cpu time    0.0660: real time    0.0652
    --------------------------------------------
      LOOP:  cpu time   21.0218: real time   21.0324

 eigenvalue-minimisations  :   533
 total energy-change (2. order) :-0.9416141E-02  (-0.1121544E-01)
 number of electron     379.9999338 magnetization 
 augmentation part      119.5709180 magnetization 

 Broyden mixing:
  rms(total) = 0.69510E-01    rms(broyden)= 0.69339E-01
  rms(prec ) = 0.86606E-01
  weight for this iteration     100.00

 eigenvalues of (default mixing * dielectric matrix)
  average eigenvalue GAMMA=   0.8520
  1.8844  1.8844  1.1059  1.1059  0.7699  0.5709  0.4250  0.3125  0.2620  0.1990

 Free energy of the ion-electron system (eV)
  ---------------------------------------------------
  alpha Z        PSCENC =       359.13074794
  Ewald energy   TEWEN  =     67126.92535035
  -Hartree energ DENC   =    -93831.54780100
  -exchange      EXHF   =         0.00000000
  -V(xc)+E(xc)   XCENC  =        83.58499170
  PAW double counting   =     22442.89583631   -21444.92829956
  entropy T*S    EENTRO =        -0.11737625
  eigenvalues    EBANDS =     -2662.84064985
  atomic energy  EATOM  =     27739.70997598
  Solvation  Ediel_sol  =         0.00000000
  ---------------------------------------------------
  free energy    TOTEN  =      -187.18722438 eV

  energy without entropy =     -187.06984812  energy(sigma->0) =     -187.14809896


--------------------------------------------------------------------------------------------------------




----------------------------------------- Iteration    1(  23)  ---------------------------------------


    POTLOK:  cpu time    2.1367: real time    2.1380
    SETDIJ:  cpu time    0.0210: real time    0.0210
    EDDIAG:  cpu time    2.8426: real time    2.8433
  RMM-DIIS:  cpu time   14.3358: real time   14.3439
    ORTHCH:  cpu time    0.2750: real time    0.2760
       DOS:  cpu time    0.0010: real time    0.0013
    CHARGE:  cpu time    1.0838: real time    1.0840
    MIXING:  cpu time    0.0670: real time    0.0666
    --------------------------------------------
      LOOP:  cpu time   20.7668: real time   20.7780

 eigenvalue-minimisations  :   529
 total energy-change (2. order) :-0.2371380E-01  (-0.1782966E-01)
 number of electron     379.9999337 magnetization 
 augmentation part      119.5315422 magnetization 

 Broyden mixing:
  rms(total) = 0.62303E-01    rms(broyden)= 0.62180E-01
  rms(prec ) = 0.79171E-01
  weight for this iteration     100.00

 eigenvalues of (default mixing * dielectric matrix)
  average eigenvalue GAMMA=   0.8420
  1.8697  1.8697  1.4904  0.9850  0.9850  0.4752  0.4752  0.3296  0.3296  0.2547
  0.1983

 Free energy of the ion-electron system (eV)
  ---------------------------------------------------
  alpha Z        PSCENC =       359.13074794
  Ewald energy   TEWEN  =     67126.92535035
  -Hartree energ DENC   =    -93838.13135075
  -exchange      EXHF   =         0.00000000
  -V(xc)+E(xc)   XCENC  =        83.67754478
  PAW double counting   =     22456.07379832   -21458.05499174
  entropy T*S    EENTRO =        -0.12302337
  eigenvalues    EBANDS =     -2656.41898967
  atomic energy  EATOM  =     27739.70997598
  Solvation  Ediel_sol  =         0.00000000
  ---------------------------------------------------
  free energy    TOTEN  =      -187.21093817 eV

  energy without entropy =     -187.08791480  energy(sigma->0) =     -187.16993038


--------------------------------------------------------------------------------------------------------




----------------------------------------- Iteration    1(  24)  ---------------------------------------


    POTLOK:  cpu time    2.1427: real time    2.1431
    SETDIJ:  cpu time    0.0210: real time    0.0212
    EDDIAG:  cpu time    2.8326: real time    2.8326
  RMM-DIIS:  cpu time   14.2978: real time   14.3043
    ORTHCH:  cpu time    0.2800: real time    0.2798
       DOS:  cpu time    0.0010: real time    0.0013
    CHARGE:  cpu time    1.0888: real time    1.0899
    MIXING:  cpu time    0.0700: real time    0.0692
    --------------------------------------------
      LOOP:  cpu time   20.7348: real time   20.7451

 eigenvalue-minimisations  :   528
 total energy-change (2. order) :-0.1124006E-01  (-0.8322339E-02)
 number of electron     379.9999337 magnetization 
 augmentation part      119.5552194 magnetization 

 Broyden mixing:
  rms(total) = 0.46980E-01    rms(broyden)= 0.46891E-01
  rms(prec ) = 0.56372E-01
  weight for this iteration     100.00

 eigenvalues of (default mixing * dielectric matrix)
  average eigenvalue GAMMA=   0.8283
  1.9640  1.9640  1.4313  1.0064  1.0064  0.5264  0.5264  0.4505  0.3101  0.3101
  0.1981  0.2463

 Free energy of the ion-electron system (eV)
  ---------------------------------------------------
  alpha Z        PSCENC =       359.13074794
  Ewald energy   TEWEN  =     67126.92535035
  -Hartree energ DENC   =    -93840.59392732
  -exchange      EXHF   =         0.00000000
  -V(xc)+E(xc)   XCENC  =        83.70288717
  PAW double counting   =     22459.33948825   -21461.32331147
  entropy T*S    EENTRO =        -0.12004882
  eigenvalues    EBANDS =     -2653.99334031
  atomic energy  EATOM  =     27739.70997598
  Solvation  Ediel_sol  =         0.00000000
  ---------------------------------------------------
  free energy    TOTEN  =      -187.22217823 eV

  energy without entropy =     -187.10212942  energy(sigma->0) =     -187.18216196


--------------------------------------------------------------------------------------------------------




----------------------------------------- Iteration    1(  25)  ---------------------------------------


    POTLOK:  cpu time    2.1477: real time    2.1485
    SETDIJ:  cpu time    0.0210: real time    0.0210
    EDDIAG:  cpu time    2.8876: real time    2.8879
  RMM-DIIS:  cpu time   14.1538: real time   14.1600
    ORTHCH:  cpu time    0.2790: real time    0.2797
       DOS:  cpu time    0.0020: real time    0.0013
    CHARGE:  cpu time    1.0928: real time    1.0932
    MIXING:  cpu time    0.0710: real time    0.0714
    --------------------------------------------
      LOOP:  cpu time   20.6569: real time   20.6667

 eigenvalue-minimisations  :   521
 total energy-change (2. order) :-0.2545546E-02  (-0.2430172E-02)
 number of electron     379.9999337 magnetization 
 augmentation part      119.5550448 magnetization 

 Broyden mixing:
  rms(total) = 0.38205E-01    rms(broyden)= 0.38174E-01
  rms(prec ) = 0.47817E-01
  weight for this iteration     100.00

 eigenvalues of (default mixing * dielectric matrix)
  average eigenvalue GAMMA=   0.8382
  2.0877  2.0877  1.2503  1.1392  1.1392  0.8050  0.5053  0.5053  0.3584  0.3237
  0.1980  0.2611  0.2355

 Free energy of the ion-electron system (eV)
  ---------------------------------------------------
  alpha Z        PSCENC =       359.13074794
  Ewald energy   TEWEN  =     67126.92535035
  -Hartree energ DENC   =    -93842.06638671
  -exchange      EXHF   =         0.00000000
  -V(xc)+E(xc)   XCENC  =        83.72116243
  PAW double counting   =     22460.35801676   -21462.29499775
  entropy T*S    EENTRO =        -0.11808777
  eigenvalues    EBANDS =     -2652.59050501
  atomic energy  EATOM  =     27739.70997598
  Solvation  Ediel_sol  =         0.00000000
  ---------------------------------------------------
  free energy    TOTEN  =      -187.22472378 eV

  energy without entropy =     -187.10663601  energy(sigma->0) =     -187.18536119


--------------------------------------------------------------------------------------------------------




----------------------------------------- Iteration    1(  26)  ---------------------------------------


    POTLOK:  cpu time    2.1447: real time    2.1462
    SETDIJ:  cpu time    0.0210: real time    0.0208
    EDDIAG:  cpu time    2.9016: real time    2.9019
  RMM-DIIS:  cpu time   14.0999: real time   14.1046
    ORTHCH:  cpu time    0.2760: real time    0.2766
       DOS:  cpu time    0.0010: real time    0.0014
    CHARGE:  cpu time    1.0878: real time    1.0888
    MIXING:  cpu time    0.0730: real time    0.0732
    --------------------------------------------
      LOOP:  cpu time   20.6079: real time   20.6177

 eigenvalue-minimisations  :   522
 total energy-change (2. order) : 0.8617781E-03  (-0.6174538E-03)
 number of electron     379.9999337 magnetization 
 augmentation part      119.5410202 magnetization 

 Broyden mixing:
  rms(total) = 0.37876E-01    rms(broyden)= 0.37831E-01
  rms(prec ) = 0.57493E-01
  weight for this iteration     100.00

 eigenvalues of (default mixing * dielectric matrix)
  average eigenvalue GAMMA=   0.8454
  2.1580  2.1580  1.2840  1.2840  1.1097  1.1097  0.5306  0.5306  0.4226  0.3148
  0.3008  0.2487  0.1983  0.1853

 Free energy of the ion-electron system (eV)
  ---------------------------------------------------
  alpha Z        PSCENC =       359.13074794
  Ewald energy   TEWEN  =     67126.92535035
  -Hartree energ DENC   =    -93844.04154723
  -exchange      EXHF   =         0.00000000
  -V(xc)+E(xc)   XCENC  =        83.74699036
  PAW double counting   =     22460.79570545   -21462.64385772
  entropy T*S    EENTRO =        -0.11560516
  eigenvalues    EBANDS =     -2650.73162197
  atomic energy  EATOM  =     27739.70997598
  Solvation  Ediel_sol  =         0.00000000
  ---------------------------------------------------
  free energy    TOTEN  =      -187.22386200 eV

  energy without entropy =     -187.10825684  energy(sigma->0) =     -187.18532695


--------------------------------------------------------------------------------------------------------




----------------------------------------- Iteration    1(  27)  ---------------------------------------


    POTLOK:  cpu time    2.1547: real time    2.1557
    SETDIJ:  cpu time    0.0210: real time    0.0209
    EDDIAG:  cpu time    2.8466: real time    2.8465
  RMM-DIIS:  cpu time   12.9080: real time   12.9142
    ORTHCH:  cpu time    0.2810: real time    0.2806
       DOS:  cpu time    0.0010: real time    0.0013
    CHARGE:  cpu time    1.0828: real time    1.0833
    MIXING:  cpu time    0.0760: real time    0.0769
    --------------------------------------------
      LOOP:  cpu time   19.3751: real time   19.3834

 eigenvalue-minimisations  :   481
 total energy-change (2. order) : 0.2418200E-02  (-0.3306510E-03)
 number of electron     379.9999337 magnetization 
 augmentation part      119.5230010 magnetization 

 Broyden mixing:
  rms(total) = 0.30566E-01    rms(broyden)= 0.30496E-01
  rms(prec ) = 0.46598E-01
  weight for this iteration     100.00

 eigenvalues of (default mixing * dielectric matrix)
  average eigenvalue GAMMA=   0.8462
  2.1338  1.8433  1.8433  1.3239  1.1759  1.1759  0.6474  0.5192  0.5192  0.3277
  0.3277  0.1981  0.2613  0.2419  0.1538

 Free energy of the ion-electron system (eV)
  ---------------------------------------------------
  alpha Z        PSCENC =       359.13074794
  Ewald energy   TEWEN  =     67126.92535035
  -Hartree energ DENC   =    -93846.95634379
  -exchange      EXHF   =         0.00000000
  -V(xc)+E(xc)   XCENC  =        83.78272251
  PAW double counting   =     22463.35270362   -21465.14886167
  entropy T*S    EENTRO =        -0.11436270
  eigenvalues    EBANDS =     -2647.90337605
  atomic energy  EATOM  =     27739.70997598
  Solvation  Ediel_sol  =         0.00000000
  ---------------------------------------------------
  free energy    TOTEN  =      -187.22144380 eV

  energy without entropy =     -187.10708110  energy(sigma->0) =     -187.18332290


--------------------------------------------------------------------------------------------------------




----------------------------------------- Iteration    1(  28)  ---------------------------------------


    POTLOK:  cpu time    2.1607: real time    2.1613
    SETDIJ:  cpu time    0.0210: real time    0.0210
    EDDIAG:  cpu time    2.9006: real time    2.9007
  RMM-DIIS:  cpu time   12.6731: real time   12.6784
    ORTHCH:  cpu time    0.2800: real time    0.2798
       DOS:  cpu time    0.0020: real time    0.0013
    CHARGE:  cpu time    1.1068: real time    1.1076
    MIXING:  cpu time    0.0790: real time    0.0786
    --------------------------------------------
      LOOP:  cpu time   19.2231: real time   19.2325

 eigenvalue-minimisations  :   470
 total energy-change (2. order) : 0.1558987E-02  (-0.2374366E-03)
 number of electron     379.9999338 magnetization 
 augmentation part      119.5257440 magnetization 

 Broyden mixing:
  rms(total) = 0.18917E-01    rms(broyden)= 0.18871E-01
  rms(prec ) = 0.27401E-01
  weight for this iteration     100.00

 eigenvalues of (default mixing * dielectric matrix)
  average eigenvalue GAMMA=   0.8466
  2.4604  1.9756  1.9756  1.1990  1.1990  0.9318  0.9318  0.5039  0.5039  0.3894
  0.3267  0.3147  0.2572  0.1980  0.2289  0.1501

 Free energy of the ion-electron system (eV)
  ---------------------------------------------------
  alpha Z        PSCENC =       359.13074794
  Ewald energy   TEWEN  =     67126.92535035
  -Hartree energ DENC   =    -93849.20180602
  -exchange      EXHF   =         0.00000000
  -V(xc)+E(xc)   XCENC  =        83.79959109
  PAW double counting   =     22464.41672981   -21466.24380391
  entropy T*S    EENTRO =        -0.11437325
  eigenvalues    EBANDS =     -2645.64229680
  atomic energy  EATOM  =     27739.70997598
  Solvation  Ediel_sol  =         0.00000000
  ---------------------------------------------------
  free energy    TOTEN  =      -187.21988481 eV

  energy without entropy =     -187.10551156  energy(sigma->0) =     -187.18176040


--------------------------------------------------------------------------------------------------------




----------------------------------------- Iteration    1(  29)  ---------------------------------------


    POTLOK:  cpu time    2.1567: real time    2.1574
    SETDIJ:  cpu time    0.0210: real time    0.0210
    EDDIAG:  cpu time    2.9066: real time    2.9082
  RMM-DIIS:  cpu time   11.9292: real time   11.9603
    ORTHCH:  cpu time    0.2830: real time    0.2831
       DOS:  cpu time    0.0010: real time    0.0013
    CHARGE:  cpu time    1.1188: real time    1.1234
    MIXING:  cpu time    0.0850: real time    0.0846
    --------------------------------------------
      LOOP:  cpu time   18.5032: real time   18.5437

 eigenvalue-minimisations  :   444
 total energy-change (2. order) : 0.1084684E-03  (-0.6421019E-04)
 number of electron     379.9999337 magnetization 
 augmentation part      119.5310029 magnetization 

 Broyden mixing:
  rms(total) = 0.80123E-02    rms(broyden)= 0.79896E-02
  rms(prec ) = 0.11396E-01
  weight for this iteration     100.00

 eigenvalues of (default mixing * dielectric matrix)
  average eigenvalue GAMMA=   0.8419
  2.6521  1.9447  1.9447  1.1720  1.1720  1.0145  1.0145  0.5355  0.5355  0.5268
  0.3399  0.3399  0.2860  0.2578  0.1981  0.2278  0.1500

 Free energy of the ion-electron system (eV)
  ---------------------------------------------------
  alpha Z        PSCENC =       359.13074794
  Ewald energy   TEWEN  =     67126.92535035
  -Hartree energ DENC   =    -93849.88058100
  -exchange      EXHF   =         0.00000000
  -V(xc)+E(xc)   XCENC  =        83.80107098
  PAW double counting   =     22463.57370255   -21465.41967422
  entropy T*S    EENTRO =        -0.11393637
  eigenvalues    EBANDS =     -2644.94643256
  atomic energy  EATOM  =     27739.70997598
  Solvation  Ediel_sol  =         0.00000000
  ---------------------------------------------------
  free energy    TOTEN  =      -187.21977635 eV

  energy without entropy =     -187.10583998  energy(sigma->0) =     -187.18179756


--------------------------------------------------------------------------------------------------------




----------------------------------------- Iteration    1(  30)  ---------------------------------------


    POTLOK:  cpu time    2.1587: real time    2.1626
    SETDIJ:  cpu time    0.0210: real time    0.0206
    EDDIAG:  cpu time    2.9076: real time    2.9157
  RMM-DIIS:  cpu time    8.1238: real time    8.1454
    ORTHCH:  cpu time    0.2750: real time    0.2751
       DOS:  cpu time    0.0020: real time    0.0013
    CHARGE:  cpu time    1.0878: real time    1.0914
    MIXING:  cpu time    0.0860: real time    0.0855
    --------------------------------------------
      LOOP:  cpu time   14.6648: real time   14.7019

 eigenvalue-minimisations  :   291
 total energy-change (2. order) :-0.5497089E-03  (-0.2189770E-04)
 number of electron     379.9999337 magnetization 
 augmentation part      119.5276910 magnetization 

 Broyden mixing:
  rms(total) = 0.61034E-02    rms(broyden)= 0.60946E-02
  rms(prec ) = 0.88365E-02
  weight for this iteration     100.00

 eigenvalues of (default mixing * dielectric matrix)
  average eigenvalue GAMMA=   0.8479
  2.7145  2.0020  2.0020  1.2168  1.2168  1.1235  1.1235  0.7238  0.5099  0.5099
  0.3839  0.3243  0.3243  0.1980  0.2562  0.2562  0.2269  0.1500

 Free energy of the ion-electron system (eV)
  ---------------------------------------------------
  alpha Z        PSCENC =       359.13074794
  Ewald energy   TEWEN  =     67126.92535035
  -Hartree energ DENC   =    -93850.70604636
  -exchange      EXHF   =         0.00000000
  -V(xc)+E(xc)   XCENC  =        83.80873067
  PAW double counting   =     22463.77139369   -21465.62309003
  entropy T*S    EENTRO =        -0.11381679
  eigenvalues    EBANDS =     -2644.12357151
  atomic energy  EATOM  =     27739.70997598
  Solvation  Ediel_sol  =         0.00000000
  ---------------------------------------------------
  free energy    TOTEN  =      -187.22032605 eV

  energy without entropy =     -187.10650926  energy(sigma->0) =     -187.18238712


--------------------------------------------------------------------------------------------------------




----------------------------------------- Iteration    1(  31)  ---------------------------------------


    POTLOK:  cpu time    2.1587: real time    2.1692
    SETDIJ:  cpu time    0.0200: real time    0.0206
    EDDIAG:  cpu time    2.8806: real time    2.8853
  RMM-DIIS:  cpu time    7.7118: real time    7.7319
    ORTHCH:  cpu time    0.2780: real time    0.2782
       DOS:  cpu time    0.0020: real time    0.0013
    CHARGE:  cpu time    1.0878: real time    1.0936
    MIXING:  cpu time    0.0890: real time    0.0889
    --------------------------------------------
      LOOP:  cpu time   14.2298: real time   14.2726

 eigenvalue-minimisations  :   276
 total energy-change (2. order) :-0.1281766E-02  (-0.1644304E-04)
 number of electron     379.9999337 magnetization 
 augmentation part      119.5330181 magnetization 

 Broyden mixing:
  rms(total) = 0.39598E-02    rms(broyden)= 0.39526E-02
  rms(prec ) = 0.62863E-02
  weight for this iteration     100.00

 eigenvalues of (default mixing * dielectric matrix)
  average eigenvalue GAMMA=   0.8499
  2.5940  2.0460  2.0460  1.4201  1.2454  1.2454  0.9740  0.9740  0.5239  0.5239
  0.4758  0.3529  0.3249  0.3249  0.2521  0.2521  0.1981  0.2243  0.1500

 Free energy of the ion-electron system (eV)
  ---------------------------------------------------
  alpha Z        PSCENC =       359.13074794
  Ewald energy   TEWEN  =     67126.92535035
  -Hartree energ DENC   =    -93851.49217795
  -exchange      EXHF   =         0.00000000
  -V(xc)+E(xc)   XCENC  =        83.81318025
  PAW double counting   =     22462.85755059   -21464.71945745
  entropy T*S    EENTRO =        -0.11359318
[...]
    134      -5.4428      2.00000
    135      -5.4262      2.00000
    136      -5.4237      2.00000
    137      -5.4192      2.00000
    138      -5.4189      2.00000
    139      -5.4183      2.00000
    140      -5.4180      2.00000
    141      -5.4106      2.00000
    142      -5.0732      2.00000
    143      -5.0414      2.00000
    144      -5.0405      2.00000
    145      -5.0395      2.00000
    146      -5.0065      2.00000
    147      -5.0047      2.00000
    148      -4.9918      2.00000
    149      -4.9904      2.00000
    150      -4.9900      2.00000
    151      -4.9615      2.00000
    152      -4.9604      2.00000
    153      -4.9587      2.00000
    154      -4.9175      2.00001
    155      -4.9173      2.00001
    156      -4.9172      2.00001
    157      -4.8697      2.00002
    158      -4.8683      2.00003
    159      -4.8681      2.00003
    160      -4.8305      2.00008
    161      -4.8299      2.00008
    162      -4.7009      2.00234
    163      -4.6885      2.00307
    164      -4.6881      2.00310
    165      -4.6852      2.00330
    166      -4.6714      2.00440
    167      -4.6446      2.00748
    168      -4.6437      2.00760
    169      -4.6416      2.00792
    170      -4.6405      2.00808
    171      -4.6403      2.00811
    172      -4.6401      2.00813
    173      -4.6353      2.00890
    174      -4.6339      2.00913
    175      -4.6163      2.01247
    176      -4.6139      2.01299
    177      -4.6134      2.01310
    178      -4.6117      2.01347
    179      -4.6072      2.01453
    180      -4.4876      2.06116
    181      -4.4871      2.06135
    182      -4.4866      2.06153
    183      -4.4409      2.07069
    184      -4.4406      2.07066
    185      -4.4405      2.07064
    186      -4.3810      2.02221
    187      -4.3751      2.01116
    188      -4.1755      0.78321
    189      -4.1728      0.76109
    190      -4.1713      0.74877
    191      -4.1568      0.63341
    192      -4.1550      0.61932
    193      -4.1546      0.61648
    194      -4.1534      0.60708
    195      -4.0895      0.19835
    196      -4.0883      0.19259
    197      -4.0842      0.17285
    198      -4.0513      0.04758
    199      -4.0494      0.04194
    200      -4.0460      0.03220
    201      -4.0215     -0.02253
    202      -3.7110     -0.00287
    203      -3.7080     -0.00268
    204      -3.7030     -0.00240
    205      -3.6545     -0.00076
    206      -3.6520     -0.00072
    207      -3.6507     -0.00069
    208      -2.6780      0.00000
    209      -2.5886      0.00000
    210      -2.5856      0.00000
    211      -2.5844      0.00000
    212      -2.3663      0.00000
    213      -2.3657      0.00000
    214      -2.3644      0.00000
    215      -2.2779      0.00000
    216      -2.2754      0.00000
    217      -2.2709      0.00000
    218      -2.1358      0.00000
    219      -2.1342      0.00000
    220      -1.6647      0.00000
    221      -0.9864      0.00000
    222      -0.9798      0.00000
    223      -0.9769      0.00000
    224      -0.9577      0.00000
    225      -0.9440      0.00000
    226      -0.4456      0.00000
    227      -0.4179      0.00000
    228      -0.3122      0.00000


--------------------------------------------------------------------------------------------------------


 soft charge-density along one line, spin component           1
         0         1         2         3         4         5         6         7         8         9
 total charge-density along one line
 
 pseudopotential strength for first ion, spin component:           1
-11.685   0.000  -0.048   0.000  -0.021   0.296   0.000   0.006
  0.000 -11.808   0.000   0.035   0.000   0.000   0.311   0.000
 -0.048   0.000 -11.754   0.000  -0.035   0.006   0.000   0.305
  0.000   0.035   0.000 -11.695   0.000   0.000  -0.004   0.000
 -0.021   0.000  -0.035   0.000 -11.740   0.002   0.000   0.005
  0.296   0.000   0.006   0.000   0.002   0.164   0.000  -0.001
  0.000   0.311   0.000  -0.004   0.000   0.000   0.162   0.000
  0.006   0.000   0.305   0.000   0.005  -0.001   0.000   0.163
  0.000  -0.004   0.000   0.297   0.000   0.000   0.001   0.000
  0.002   0.000   0.005   0.000   0.302   0.000   0.000  -0.001
 -0.021   0.000   0.013   0.000  -0.021   0.002   0.000  -0.001
  0.001   0.000  -0.001   0.000   0.001   0.000   0.000   0.000
  0.013   0.000  -0.003   0.000  -0.003  -0.003   0.000   0.001
  0.000   0.006   0.000   0.012   0.000   0.000  -0.001   0.000
  0.007   0.000  -0.009   0.000   0.014  -0.001   0.000   0.001
 -0.012   0.000   0.002   0.000   0.004   0.002   0.000   0.000
  0.000  -0.005   0.000  -0.010   0.000   0.000   0.001   0.000
 -0.005   0.000   0.007   0.000  -0.011   0.001   0.000  -0.001
 total augmentation occupancy for first ion, spin component:           1
  1.902  -0.001  -0.073   0.000  -0.103  -0.069   0.001   0.047   0.000   0.062   0.016  -0.025   0.026   0.000  -0.010   0.014
 -0.001   1.595   0.000   0.039   0.000   0.001   0.165   0.001  -0.022   0.000   0.000   0.000   0.000   0.007   0.000   0.000
 -0.073   0.000   1.744   0.000  -0.019   0.047   0.001   0.044   0.000  -0.009  -0.042   0.000   0.003   0.000  -0.008  -0.003
  0.000   0.039   0.000   1.859   0.000   0.000  -0.018   0.000  -0.040   0.000   0.000   0.000   0.000  -0.025   0.000   0.000
 -0.103   0.000  -0.019   0.000   1.674   0.061   0.000  -0.005   0.000   0.088  -0.006  -0.010   0.005   0.000  -0.039  -0.005
 -0.069   0.001   0.047   0.000   0.061   0.203   0.000  -0.023   0.000  -0.042  -0.072   0.006  -0.099   0.000  -0.001   0.004
  0.001   0.165   0.001  -0.018   0.000   0.000   0.164   0.000   0.005   0.000   0.001   0.000   0.000  -0.031   0.000   0.000
  0.047   0.001   0.044   0.000  -0.005  -0.023   0.000   0.193   0.000   0.002   0.082  -0.001   0.039   0.000   0.025  -0.001
  0.000  -0.022   0.000  -0.040   0.000   0.000   0.005   0.000   0.263   0.000   0.001   0.000   0.000  -0.140   0.000   0.000
  0.062   0.000  -0.009   0.000   0.088  -0.042   0.000   0.002   0.000   0.226  -0.078  -0.007   0.087   0.000  -0.076  -0.003
  0.016   0.000  -0.042   0.000  -0.006  -0.072   0.001   0.082   0.001  -0.078   1.198  -0.314  -0.050   0.000  -0.125   0.004
 -0.025   0.000   0.000   0.000  -0.010   0.006   0.000  -0.001   0.000  -0.007  -0.314   0.140   0.030   0.000   0.079  -0.002
  0.026   0.000   0.003   0.000   0.005  -0.099   0.000   0.039   0.000   0.087  -0.050   0.030   0.150   0.000  -0.020  -0.006
  0.000   0.007   0.000  -0.025   0.000   0.000  -0.031   0.000  -0.140   0.000   0.000   0.000   0.000   0.146   0.000   0.000
 -0.010   0.000  -0.008   0.000  -0.039  -0.001   0.000   0.025   0.000  -0.076  -0.125   0.079  -0.020   0.000   0.088   0.000
  0.014   0.000  -0.003   0.000  -0.005   0.004   0.000  -0.001   0.000  -0.003   0.004  -0.002  -0.006   0.000   0.000   0.000
  0.000   0.005   0.000   0.016   0.000   0.000   0.002   0.000   0.006   0.000   0.000   0.000   0.000  -0.006   0.000   0.000
  0.007   0.000  -0.009   0.000   0.016   0.000   0.000  -0.001   0.000   0.004   0.011  -0.005   0.001   0.000  -0.005   0.000


------------------------ aborting loop because EDIFF is reached ----------------------------------------


    CHARGE:  cpu time    1.0958: real time    1.0977
    FORLOC:  cpu time    0.3100: real time    0.3105
    FORNL :  cpu time    3.6824: real time    3.6837
    FORCOR:  cpu time    2.3526: real time    2.3540
    FORHAR:  cpu time    0.8099: real time    0.8103
    MIXING:  cpu time    0.0490: real time    0.0495
    OFIELD:  cpu time    0.0010: real time    0.0001

 VOLUME and BASIS-vectors are now :
 -----------------------------------------------------------------------------
  energy-cutoff  :      274.00
  volume of cell :     5832.00
      direct lattice vectors                 reciprocal lattice vectors
    18.000000000  0.000000000  0.000000000     0.055555556  0.000000000  0.000000000
     0.000000000 18.000000000  0.000000000     0.000000000  0.055555556  0.000000000
     0.000000000  0.000000000 18.000000000     0.000000000  0.000000000  0.055555556

  length of vectors
    18.000000000 18.000000000 18.000000000     0.055555556  0.055555556  0.055555556


 FORCES acting on ions
    electron-ion (+dipol)            ewald-force                    non-local-force                 convergence-correction
 -----------------------------------------------------------------------------------------------
   -.138E+04 -.474E+03 0.470E+00   0.138E+04 0.474E+03 -.436E+00   0.124E+01 0.342E+00 0.983E-03   -.460E-02 -.729E-02 -.336E-01
   -.474E+03 -.138E+04 0.465E+00   0.474E+03 0.138E+04 -.435E+00   0.343E+00 0.124E+01 0.888E-03   0.803E-02 -.454E-02 -.294E-01
   0.138E+04 -.477E+03 -.644E+00   -.138E+04 0.476E+03 0.676E+00   -.123E+01 0.352E+00 -.401E-02   -.466E-02 0.111E-01 -.277E-01
   0.477E+03 -.138E+04 -.207E+01   -.477E+03 0.138E+04 0.209E+01   -.352E+00 0.123E+01 -.271E-02   0.140E-01 0.923E-02 -.233E-01
   0.138E+04 0.475E+03 0.341E+01   -.138E+04 -.474E+03 -.338E+01   -.123E+01 -.343E+00 -.112E-02   -.817E-02 -.640E-02 -.312E-01
   0.475E+03 0.138E+04 0.340E+01   -.474E+03 -.138E+04 -.338E+01   -.342E+00 -.123E+01 -.131E-02   0.180E-01 -.823E-02 -.233E-01
   -.138E+04 0.477E+03 -.207E+01   0.138E+04 -.477E+03 0.210E+01   0.123E+01 -.352E+00 -.253E-02   -.624E-02 0.332E-02 -.233E-01
   -.477E+03 0.138E+04 -.661E+00   0.476E+03 -.138E+04 0.681E+00   0.352E+00 -.123E+01 -.416E-02   0.168E-01 0.845E-02 -.155E-01
   -.112E+04 0.186E+00 -.800E+03   0.112E+04 -.175E+00 0.801E+03   -.141E+01 0.194E-02 -.995E+00   0.256E-01 -.140E-01 -.460E-01
   0.112E+04 0.111E+01 -.799E+03   -.112E+04 -.111E+01 0.800E+03   0.141E+01 -.133E-02 -.992E+00   -.164E-01 0.561E-02 -.219E-01
   0.165E+00 -.112E+04 -.800E+03   -.178E+00 0.112E+04 0.801E+03   0.217E-02 -.141E+01 -.995E+00   0.973E-02 0.286E-01 -.403E-01
   0.109E+01 0.112E+04 -.799E+03   -.112E+01 -.112E+04 0.800E+03   -.121E-02 0.141E+01 -.993E+00   0.316E-01 -.230E-01 -.290E-01
   -.943E+03 -.943E+03 -.673E+03   0.942E+03 0.942E+03 0.672E+03   0.800E+00 0.800E+00 0.639E+00   0.188E-01 0.110E-01 -.417E-01
   0.942E+03 -.941E+03 -.678E+03   -.941E+03 0.940E+03 0.678E+03   -.780E+00 0.779E+00 0.630E+00   -.669E-02 0.325E-01 -.221E-01
   0.944E+03 0.944E+03 -.671E+03   -.943E+03 -.943E+03 0.670E+03   -.804E+00 -.804E+00 0.641E+00   -.484E-02 -.270E-01 -.192E-01
   -.941E+03 0.942E+03 -.678E+03   0.940E+03 -.941E+03 0.678E+03   0.779E+00 -.780E+00 0.630E+00   0.182E-01 -.112E-01 -.305E-01
   -.112E+04 0.100E+00 0.798E+03   0.112E+04 -.105E+00 -.799E+03   -.142E+01 -.295E-03 0.998E+00   -.109E-01 0.500E-02 -.368E-02
   0.112E+04 -.131E+01 0.800E+03   -.112E+04 0.131E+01 -.801E+03   0.142E+01 -.104E-02 0.999E+00   0.197E-01 0.787E-03 -.262E-01
   0.854E-01 -.112E+04 0.798E+03   -.106E+00 0.112E+04 -.799E+03   -.666E-04 -.142E+01 0.998E+00   0.213E-01 -.136E-01 -.986E-02
   -.131E+01 0.112E+04 0.800E+03   0.129E+01 -.112E+04 -.801E+03   -.103E-02 0.142E+01 0.100E+01   0.191E-01 0.162E-01 -.121E-01
   -.942E+03 -.942E+03 0.675E+03   0.942E+03 0.942E+03 -.674E+03   0.787E+00 0.787E+00 -.625E+00   -.513E-02 -.191E-01 -.766E-02
   0.942E+03 -.943E+03 0.674E+03   -.941E+03 0.942E+03 -.674E+03   -.797E+00 0.798E+00 -.649E+00   0.187E-01 0.345E-03 -.164E-01
   0.941E+03 0.941E+03 0.678E+03   -.941E+03 -.941E+03 -.678E+03   -.789E+00 -.788E+00 -.630E+00   0.141E-01 0.284E-02 -.226E-01
   -.943E+03 0.942E+03 0.674E+03   0.942E+03 -.941E+03 -.674E+03   0.798E+00 -.797E+00 -.649E+00   -.331E-02 0.208E-01 -.166E-02
   -.482E+03 -.482E+03 -.131E+04   0.481E+03 0.481E+03 0.131E+04   0.467E+00 0.466E+00 0.114E+01   0.248E-01 0.963E-02 -.459E-02
   0.479E+03 -.478E+03 -.131E+04   -.479E+03 0.477E+03 0.131E+04   -.439E+00 0.437E+00 0.113E+01   -.777E-02 0.230E-01 0.572E-02
   0.483E+03 0.483E+03 -.131E+04   -.483E+03 -.483E+03 0.130E+04   -.472E+00 -.472E+00 0.115E+01   0.498E-02 -.225E-01 0.887E-02
   -.478E+03 0.479E+03 -.131E+04   0.477E+03 -.479E+03 0.131E+04   0.437E+00 -.439E+00 0.113E+01   0.314E-01 -.284E-01 -.738E-02
   -.481E+03 -.481E+03 0.131E+04   0.481E+03 0.481E+03 -.131E+04   0.445E+00 0.445E+00 -.111E+01   0.530E-02 -.105E-01 0.150E-01
   0.480E+03 -.482E+03 0.131E+04   -.479E+03 0.482E+03 -.131E+04   -.451E+00 0.453E+00 -.113E+01   0.248E-01 -.876E-02 0.288E-02
   0.479E+03 0.479E+03 0.131E+04   -.478E+03 -.478E+03 -.131E+04   -.444E+00 -.443E+00 -.111E+01   0.213E-01 0.105E-01 0.122E-02
   -.482E+03 0.480E+03 0.131E+04   0.482E+03 -.479E+03 -.131E+04   0.453E+00 -.452E+00 -.113E+01   0.355E-02 0.175E-01 0.127E-01
   0.571E+00 0.593E+00 -.683E+03   -.599E+00 -.586E+00 0.683E+03   -.131E-02 -.180E-02 0.790E+00   0.287E-01 -.508E-02 -.544E-01
   0.485E+03 0.485E+03 -.320E-01   -.484E+03 -.484E+03 0.777E-01   -.566E+00 -.567E+00 0.232E-02   0.269E-01 -.355E-02 -.498E-01
   0.485E+03 -.485E+03 -.322E+00   -.484E+03 0.484E+03 0.377E+00   -.566E+00 0.569E+00 -.846E-02   0.237E-01 0.120E-01 -.486E-01
   -.508E+00 -.498E+00 0.682E+03   0.479E+00 0.494E+00 -.681E+03   0.109E-02 0.695E-03 -.806E+00   0.285E-01 0.332E-02 -.294E-01
   -.485E+03 -.485E+03 -.164E+01   0.484E+03 0.484E+03 0.169E+01   0.566E+00 0.566E+00 0.292E-02   0.237E-01 0.560E-03 -.543E-01
   -.485E+03 0.485E+03 -.334E+00   0.484E+03 -.484E+03 0.384E+00   0.568E+00 -.567E+00 -.830E-02   0.282E-01 -.220E-02 -.424E-01
 -----------------------------------------------------------------------------------------------
   -.451E+00 -.160E-01 0.764E+00   -.227E-12 0.165E-11 -.555E-16   -.271E-02 -.350E-02 0.313E-01   0.451E+00 0.168E-01 -.803E+00
 
 
 POSITION                                       TOTAL-FORCE (eV/Angst)
 -----------------------------------------------------------------------------------
     13.01754     10.31685      8.99608         0.000089      0.000801      0.001644
     10.31682     13.01756      8.99608         0.001251      0.000250      0.001637
      4.98472     10.32083      8.99684        -0.001727      0.000957      0.000492
      7.67489     13.01357      9.00095         0.000078      0.001307      0.000494
      4.98152      7.67925      8.98792        -0.001135     -0.001299      0.000710
      7.67924      4.98156      8.98792        -0.000844     -0.001087      0.000902
     13.01358      7.67490      9.00096         0.000692      0.000129      0.000501
     10.32073      4.98471      8.99684         0.000842     -0.000822      0.000740
     11.99455      9.00121     11.12007        -0.001688     -0.001166     -0.003293
      6.00052      8.99223     11.11630         0.000834      0.001388     -0.003333
      9.00125     11.99452     11.12006        -0.000954     -0.001503     -0.003365
      8.99225      6.00054     11.11625         0.001586      0.001507     -0.003633
     11.67284     11.67285     10.90248         0.000386      0.000320      0.002591
      6.33373     11.66039     10.91147        -0.002459      0.003174      0.000263
      6.32153      6.32153     10.89659        -0.000776     -0.000951      0.002678
     11.66034      6.33373     10.91151         0.002352     -0.001752     -0.000095
     11.99464      8.99738      6.87840         0.000046      0.000317      0.001649
      6.00624      9.00306      6.87280        -0.000203     -0.000048      0.001131
      8.99742     11.99462      6.87840         0.000313      0.000194      0.001398
      9.00308      6.00625      6.87285        -0.000137     -0.000225      0.001260
     11.66674     11.66675      7.08975         0.000823      0.000835      0.002011
      6.32817     11.67186      7.08481        -0.001005      0.000808      0.002199
      6.33361      6.33360      7.07957        -0.001442     -0.001262      0.001052
     11.67181      6.32817      7.08480         0.000758     -0.000704      0.002683
     10.35420     10.35421     12.77709        -0.002241     -0.002543     -0.000524
      7.65535     10.33685     12.77749        -0.001164      0.000778     -0.001498
      7.63773      7.63773     12.77540         0.002369      0.002039     -0.001409
     10.33680      7.65537     12.77749         0.001065     -0.001431     -0.002379
     10.34767     10.34767      5.21939         0.001050      0.001052      0.001379
      7.65104     10.35281      5.21452        -0.001102      0.000965      0.001637
      7.65623      7.65622      5.21391        -0.000968     -0.000880      0.000688
     10.35278      7.65104      5.21455         0.001231     -0.001087      0.001644
      8.99715      8.99713     10.88611         0.000271     -0.000218     -0.003394
      7.66572      7.66569      8.99573        -0.000293     -0.000486     -0.001647
      7.66686     10.33068      8.99749        -0.000898      0.001322     -0.001371
      9.00022      9.00018      7.10977         0.000279      0.000123     -0.002540
     10.33171     10.33168      8.99991         0.000992      0.000563     -0.001828
     10.33070      7.66681      8.99749         0.001734     -0.001366     -0.001075
 -----------------------------------------------------------------------------------
    total drift:                               -0.003268     -0.002745     -0.007517


--------------------------------------------------------------------------------------------------------



  FREE ENERGIE OF THE ION-ELECTRON SYSTEM (eV)
  ---------------------------------------------------
  free  energy   TOTEN  =      -187.22811772 eV

  energy  without entropy=     -187.11470683  energy(sigma->0) =     -187.19031409
 
 d Force = 0.1292982E-04[ 0.612E-05, 0.197E-04]  d Energy = 0.6625724E-04-0.533E-04
 d Force =-0.1379752E+00[-0.138E+00,-0.138E+00]  d Ewald  =-0.1379758E+00 0.547E-06


--------------------------------------------------------------------------------------------------------


    POTLOK:  cpu time    2.2407: real time    2.2411


--------------------------------------------------------------------------------------------------------


 stress matrix after NEB project (eV)
      0.00000      0.00000      0.00000
      0.00000      0.00000      0.00000
      0.00000      0.00000      0.00000
  FORCES: max atom, RMS     0.004241    0.002547
  FORCE total and by dimension    0.015703    0.003633
  Stress total and by dimension    0.000000    0.000000
 Steepest descent step on ions:
 trial-energy change:   -0.000066  1 .order   -0.000013   -0.000020   -0.000006
  (g-gl).g = 0.197E-04      g.g   = 0.197E-04  gl.gl    = 0.000E+00
 g(Force)  = 0.197E-04   g(Stress)= 0.000E+00 ortho     = 0.000E+00
 gamma     =   0.00000
 trial     =   1.00000
 opt step  =   1.44987  (harmonic =   1.44987) maximal distance =0.00011045
 next E    =  -187.228066   (d E  =  -0.00001)


--------------------------------------------------------------------------------------------------------


  
 reached required accuracy - stopping structural energy minimisation
     LOOP+:  cpu time   41.2917: real time   41.3816
    4ORBIT:  cpu time    0.0000: real time    0.0000

 total amount of memory used by VASP on root node    97276. kBytes
========================================================================

   base      :      30000. kBytes
   nonlr-proj:       3251. kBytes
   fftplans  :      20116. kBytes
   grid      :      29926. kBytes
   one-center:         77. kBytes
   wavefun   :      13906. kBytes
 
  
  
 General timing and accounting informations for this job:
 ========================================================
  
                  Total CPU time used (sec):      728.094
                            User time (sec):      721.991
                          System time (sec):        6.103
                         Elapsed time (sec):      729.206
  
                   Maximum memory used (kb):      137152.
                   Average memory used (kb):           0.
  
                          Minor page faults:       276767
                          Major page faults:           29
                 Voluntary context switches:         1821
