<?xml version="1.0" encoding="ISO-8859-1"?>
<modeling>
 <generator>
  <i name="program" type="string">vasp </i>
  <i name="version" type="string">5.4.1  </i>
  <i name="subversion" type="string">24Jun15 (build Jan 06 2016 13:19:48) gamma-only                       parallel </i>
  <i name="platform" type="string">IFC91_ompi </i>
  <i name="date" type="string">2016 03 24 </i>
  <i name="time" type="string">01:35:25 </i>
 </generator>
 <incar>
  <i type="string" name="SYSTEM"> Pt cube particle</i>
  <i type="string" name="PREC">normal</i>
  <i type="int" name="IALGO">    48</i>
  <i type="int" name="IBRION">     2</i>
  <i name="EDIFF">      0.00010000</i>
  <i name="EDIFFG">     -0.00500000</i>
  <i type="int" name="NSW">   200</i>
  <i type="int" name="ISIF">     0</i>
  <i type="int" name="ISYM">     0</i>
  <i name="ENMAX">    274.00000000</i>
  <i name="POTIM">      0.10000000</i>
  <i type="string" name="LREAL">Auto</i>
  <i type="logical" name="LPLANE"> T  </i>
  <i type="logical" name="LWAVE"> F  </i>
  <i type="logical" name="LCHARG"> F  </i>
  <v type="int" name="KPOINT_BSE">    -1     0     0     0</v>
 </incar>
 <kpoints>
  <generation param="Monkhorst-Pack">
   <v type="int" name="divisions">       1        1        1 </v>
   <v name="usershift">      0.00000000       0.00000000       0.00000000 </v>
   <v name="genvec1">      1.00000000       0.00000000       0.00000000 </v>
   <v name="genvec2">      0.00000000       1.00000000       0.00000000 </v>
   <v name="genvec3">      0.00000000       0.00000000       1.00000000 </v>
   <v name="shift">      0.00000000       0.00000000       0.00000000 </v>
  </generation>
  <varray name="kpointlist" >
   <v>       0.00000000       0.00000000       0.00000000 </v>
  </varray>
  <varray name="weights" >
   <v>       1.00000000 </v>
  </varray>
 </kpoints>
 <parameters>
  <separator name="general" >
   <i type="string" name="SYSTEM">Pt cube particle</i>
   <i type="logical" name="LCOMPAT"> F  </i>
  </separator>
  <separator name="electronic" >
   <i type="string" name="PREC">normal</i>
   <i name="ENMAX">    274.00000000</i>
   <i name="ENAUG">    358.96600000</i>
   <i name="EDIFF">      0.00010000</i>
   <i type="int" name="IALGO">    48</i>
   <i type="int" name="IWAVPR">    11</i>
   <i type="int" name="NBANDS">   228</i>
   <i name="NELECT">    380.00000000</i>
   <i type="int" name="TURBO">     0</i>
   <i type="int" name="IRESTART">     0</i>
   <i type="int" name="NREBOOT">     0</i>
   <i type="int" name="NMIN">     0</i>
   <i name="EREF">      0.00000000</i>
   <separator name="electronic smearing" >
    <i type="int" name="ISMEAR">     1</i>
    <i name="SIGMA">      0.20000000</i>
    <i name="KSPACING">      0.50000000</i>
    <i type="logical" name="KGAMMA"> T  </i>
   </separator>
   <separator name="electronic projectors" >
    <i type="logical" name="LREAL"> T  </i>
    <v name="ROPT">     -0.00050000</v>
    <i type="int" name="LMAXPAW">  -100</i>
    <i type="int" name="LMAXMIX">     2</i>
    <i type="logical" name="NLSPLINE"> F  </i>
   </separator>
   <separator name="electronic startup" >
    <i type="int" name="ISTART">     0</i>
    <i type="int" name="ICHARG">     2</i>
    <i type="int" name="INIWAV">     1</i>
   </separator>
   <separator name="electronic spin" >
    <i type="int" name="ISPIN">     1</i>
    <i type="logical" name="LNONCOLLINEAR"> F  </i>
    <v name="MAGMOM">      1.00000000      1.00000000      1.00000000      1.00000000      1.00000000      1.00000000      1.00000000      1.00000000      1.00000000      1.00000000      1.00000000      1.00000000      1.00000000      1.00000000      1.00000000      1.00000000      1.00000000      1.00000000      1.00000000      1.00000000
      1.00000000      1.00000000      1.00000000      1.00000000      1.00000000      1.00000000      1.00000000      1.00000000      1.00000000      1.00000000      1.00000000      1.00000000      1.00000000      1.00000000      1.00000000      1.00000000      1.00000000      1.00000000</v>
    <i name="NUPDOWN">     -1.00000000</i>
    <i type="logical" name="LSORBIT"> F  </i>
    <v name="SAXIS">      0.00000000      0.00000000      1.00000000</v>
    <i type="logical" name="LSPIRAL"> F  </i>
    <v name="QSPIRAL">      0.00000000      0.00000000      0.00000000</v>
    <i type="logical" name="LZEROZ"> F  </i>
   </separator>
   <separator name="electronic exchange-correlation" >
    <i type="logical" name="LASPH"> F  </i>
    <i type="logical" name="LMETAGGA"> F  </i>
   </separator>
   <separator name="electronic convergence" >
    <i type="int" name="NELM">    60</i>
    <i type="int" name="NELMDL">   -12</i>
    <i type="int" name="NELMIN">     2</i>
    <i name="ENINI">    274.00000000</i>
    <separator name="electronic convergence detail" >
     <i type="logical" name="LDIAG"> T  </i>
     <i type="logical" name="LSUBROT"> F  </i>
     <i name="WEIMIN">      0.00100000</i>
     <i name="EBREAK">      0.00000011</i>
     <i name="DEPER">      0.30000000</i>
     <i type="int" name="NRMM">     4</i>
     <i name="TIME">      0.40000000</i>
    </separator>
   </separator>
   <separator name="electronic mixer" >
    <i name="AMIX">      0.40000000</i>
    <i name="BMIX">      1.00000000</i>
    <i name="AMIN">      0.10000000</i>
    <i name="AMIX_MAG">      1.60000000</i>
    <i name="BMIX_MAG">      1.00000000</i>
    <separator name="electronic mixer details" >
     <i type="int" name="IMIX">     4</i>
     <i type="logical" name="MIXFIRST"> F  </i>
     <i type="int" name="MAXMIX">   -45</i>
     <i name="WC">    100.00000000</i>
     <i type="int" name="INIMIX">     1</i>
     <i type="int" name="MIXPRE">     1</i>
     <i type="int" name="MREMOVE">     5</i>
    </separator>
   </separator>
   <separator name="electronic dipolcorrection" >
    <i type="logical" name="LDIPOL"> F  </i>
    <i type="logical" name="LMONO"> F  </i>
    <i type="int" name="IDIPOL">     0</i>
    <i name="EPSILON">      1.00000000</i>
    <v name="DIPOL">   -100.00000000   -100.00000000   -100.00000000</v>
    <i name="EFIELD">      0.00000000</i>
   </separator>
  </separator>
  <separator name="grids" >
   <i type="int" name="NGX">    80</i>
   <i type="int" name="NGY">    80</i>
   <i type="int" name="NGZ">    80</i>
   <i type="int" name="NGXF">   160</i>
   <i type="int" name="NGYF">   160</i>
   <i type="int" name="NGZF">   160</i>
   <i type="logical" name="ADDGRID"> F  </i>
  </separator>
  <separator name="ionic" >
   <i type="int" name="NSW">   200</i>
   <i type="int" name="IBRION">     2</i>
   <i type="int" name="ISIF">     0</i>
   <i name="PSTRESS">      0.00000000</i>
   <i name="EDIFFG">     -0.00500000</i>
   <i type="int" name="NFREE">     1</i>
   <i name="POTIM">      0.10000000</i>
   <i name="SMASS">     -3.00000000</i>
   <i name="SCALEE">      1.00000000</i>
  </separator>
  <separator name="ionic md" >
   <i name="TEBEG">      0.00010000</i>
   <i name="TEEND">      0.00010000</i>
   <i type="int" name="NBLOCK">     1</i>
   <i type="int" name="KBLOCK">   200</i>
   <i type="int" name="NPACO">   256</i>
   <i name="APACO">     16.00000000</i>
  </separator>
  <separator name="symmetry" >
   <i type="int" name="ISYM">     0</i>
   <i name="SYMPREC">      0.00001000</i>
  </separator>
  <separator name="dos" >
   <i type="logical" name="LORBIT"> F  </i>
   <v name="RWIGS">     -1.00000000</v>
   <i type="int" name="NEDOS">   301</i>
   <i name="EMIN">     10.00000000</i>
   <i name="EMAX">    -10.00000000</i>
   <i name="EFERMI">      0.00000000</i>
  </separator>
  <separator name="writing" >
   <i type="int" name="NWRITE">     2</i>
   <i type="logical" name="LWAVE"> F  </i>
   <i type="logical" name="LCHARG"> F  </i>
   <i type="logical" name="LPARD"> F  </i>
   <i type="logical" name="LVTOT"> F  </i>
   <i type="logical" name="LVHAR"> F  </i>
   <i type="logical" name="LELF"> F  </i>
   <i type="logical" name="LOPTICS"> F  </i>
   <v name="STM">      0.00000000      0.00000000      0.00000000      0.00000000      0.00000000      0.00000000      0.00000000</v>
  </separator>
  <separator name="performance" >
   <i type="int" name="NPAR">     2</i>
   <i type="int" name="NSIM">     4</i>
   <i type="int" name="NBLK">    -1</i>
   <i type="logical" name="LPLANE"> T  </i>
   <i type="logical" name="LSCALAPACK"> T  </i>
   <i type="logical" name="LSCAAWARE"> F  </i>
   <i type="logical" name="LSCALU"> F  </i>
   <i type="logical" name="LASYNC"> F  </i>
   <i type="logical" name="LORBITALREAL"> F  </i>
  </separator>
  <separator name="miscellaneous" >
   <i type="int" name="IDIOT">     3</i>
   <i type="logical" name="LMUSIC"> F  </i>
   <v name="POMASS">    195.08000000</v>
   <v name="DARWINR">      0.00000000</v>
   <v name="DARWINV">      1.00000000</v>
   <i type="logical" name="LCORR"> T  </i>
  </separator>
  <i type="logical" name="GGA_COMPAT"> T  </i>
  <i type="logical" name="LBERRY"> F  </i>
  <i type="int" name="ICORELEVEL">     0</i>
  <i type="logical" name="LDAU"> F  </i>
  <i type="int" name="I_CONSTRAINED_M">     0</i>
  <separator name="electronic exchange-correlation" >
   <i type="string" name="GGA">--</i>
   <i type="int" name="VOSKOWN">     0</i>
   <i type="logical" name="LHFCALC"> F  </i>
   <i type="string" name="PRECFOCK"></i>
   <i type="logical" name="LSYMGRAD"> F  </i>
   <i type="logical" name="LHFONE"> F  </i>
   <i type="logical" name="LRHFCALC"> F  </i>
   <i type="logical" name="LTHOMAS"> F  </i>
   <i type="logical" name="LMODELHF"> F  </i>
   <i name="ENCUT4O">     -1.00000000</i>
   <i type="int" name="EXXOEP">     0</i>
   <i type="int" name="FOURORBIT">     0</i>
   <i name="AEXX">      0.00000000</i>
   <i name="HFALPHA">      0.00000000</i>
   <i name="MCALPHA">      0.00000000</i>
   <i name="ALDAX">      1.00000000</i>
   <i name="AGGAX">      1.00000000</i>
   <i name="ALDAC">      1.00000000</i>
   <i name="AGGAC">      1.00000000</i>
   <i type="int" name="NKREDX">     1</i>
   <i type="int" name="NKREDY">     1</i>
   <i type="int" name="NKREDZ">     1</i>
   <i type="logical" name="SHIFTRED"> F  </i>
   <i type="logical" name="ODDONLY"> F  </i>
   <i type="logical" name="EVENONLY"> F  </i>
   <i type="int" name="LMAXFOCK">     0</i>
   <i type="int" name="NMAXFOCKAE">     0</i>
   <i type="logical" name="LFOCKAEDFT"> F  </i>
   <i name="HFSCREEN">      0.00000000</i>
   <i name="HFSCREENC">      0.00000000</i>
   <i type="int" name="NBANDSGWLOW">     0</i>
  </separator>
  <separator name="vdW DFT" >
   <i type="logical" name="LUSE_VDW"> F  </i>
   <i name="Zab_VDW">     -0.84910000</i>
   <i name="PARAM1">      0.12340000</i>
   <i name="PARAM2">      1.00000000</i>
   <i name="PARAM3">      0.00000000</i>
  </separator>
  <separator name="model GW" >
   <i type="int" name="MODEL_GW">     0</i>
   <i name="MODEL_EPS0">     92.08421053</i>
   <i name="MODEL_ALPHA">      1.00000000</i>
  </separator>
  <separator name="linear response parameters" >
   <i type="logical" name="LEPSILON"> F  </i>
   <i type="logical" name="LRPA"> F  </i>
   <i type="logical" name="LNABLA"> F  </i>
   <i type="logical" name="LVEL"> F  </i>
   <i type="int" name="KINTER">     0</i>
   <i name="CSHIFT">      0.10000000</i>
   <i name="OMEGAMAX">     -1.00000000</i>
   <i name="DEG_THRESHOLD">      0.00200000</i>
  </separator>
  <separator name="orbital magnetization" >
   <i type="logical" name="NUCIND"> F  </i>
   <v name="MAGPOS">      0.00000000      0.00000000      0.00000000</v>
   <i type="logical" name="LNICSALL"> T  </i>
   <i type="logical" name="ORBITALMAG"> F  </i>
   <i type="logical" name="LMAGBLOCH"> F  </i>
   <i type="logical" name="LCHIMAG"> F  </i>
   <i type="logical" name="LGAUGE"> T  </i>
   <i type="int" name="MAGATOM">     0</i>
   <v name="MAGDIPOL">      0.00000000      0.00000000      0.00000000</v>
   <v name="AVECCONST">      0.00000000      0.00000000      0.00000000</v>
  </separator>
  <separator name="response functions" >
   <i type="logical" name="LADDER"> F  </i>
   <i type="logical" name="LFXC"> F  </i>
   <i type="logical" name="LHARTREE"> T  </i>
   <i type="int" name="IBSE">     0</i>
   <v type="int" name="KPOINT">    -1     0     0     0</v>
   <i type="logical" name="LTCTE"> F  </i>
   <i type="logical" name="LTETE"> F  </i>
   <i type="logical" name="LTRIPLET"> F  </i>
   <i type="logical" name="LFXCEPS"> F  </i>
   <i type="logical" name="LFXHEG"> F  </i>
   <i type="int" name="NATURALO">     0</i>
   <i type="logical" name="L2ORDER"> F  </i>
   <i type="logical" name="LUSEW"> F  </i>
   <i name="ENCUTGW">     -2.00000000</i>
   <i name="ENCUTGWSOFT">     -2.00000000</i>
   <i name="ENCUTLF">     -1.00000000</i>
   <i type="int" name="LMAXMP2">    -1</i>
   <i name="SCISSOR">      0.00000000</i>
   <i type="int" name="NOMEGA">     0</i>
   <i type="int" name="NOMEGAR">     0</i>
   <i type="int" name="NBANDSGW">    -1</i>
   <i type="int" name="NBANDSO">    -1</i>
   <i type="int" name="NBANDSV">    -1</i>
   <i type="int" name="NELM">     1</i>
   <i type="int" name="NELMHF">     1</i>
   <i type="int" name="DIM">     3</i>
   <i type="int" name="ANTIRES">     0</i>
   <i name="OMEGAMAX">    -30.00000000</i>
   <i name="OMEGAMIN">    -30.00000000</i>
   <i name="OMEGATL">   -200.00000000</i>
   <i type="int" name="OMEGAGRID">     0</i>
   <i name="CSHIFT">     -0.10000000</i>
   <i type="logical" name="SELFENERGY"> F  </i>
   <i type="logical" name="LSPECTRAL"> F  </i>
   <i type="logical" name="LSPECTRALGW"> F  </i>
   <i type="logical" name="LSINGLES"> F  </i>
   <i type="logical" name="LFERMIGW"> F  </i>
   <i type="logical" name="ODDONLYGW"> F  </i>
   <i type="logical" name="EVENONLYGW"> F  </i>
   <i type="int" name="NKREDLFX">     1</i>
   <i type="int" name="NKREDLFY">     1</i>
   <i type="int" name="NKREDLFZ">     1</i>
   <i type="int" name="MAXMEM">  1800</i>
   <i type="int" name="TELESCOPE">     0</i>
   <i type="int" name="TAUPAR">     1</i>
   <i type="int" name="OMEGAPAR">    -1</i>
   <i name="LAMBDA">      1.00000000</i>
  </separator>
  <separator name="External order field" >
   <i name="OFIELD_KAPPA">      0.00000000</i>
   <v name="OFIELD_K">      0.00000000      0.00000000      0.00000000</v>
   <i name="OFIELD_Q6_NEAR">      0.00000000</i>
   <i name="OFIELD_Q6_FAR">      0.00000000</i>
   <i name="OFIELD_A">      0.00000000</i>
  </separator>
  <separator name="solvation model" >
   <i type="logical" name="LSOL"> F  </i>
  </separator>
 </parameters>
 <atominfo>
  <atoms>      38 </atoms>
  <types>       1 </types>
  <array name="atoms" >
   <dimension dim="1">ion</dimension>
   <field type="string">element</field>
   <field type="int">atomtype</field>
   <set>
    <rc><c>Pt</c><c>   1</c></rc>
    <rc><c>Pt</c><c>   1</c></rc>
    <rc><c>Pt</c><c>   1</c></rc>
    <rc><c>Pt</c><c>   1</c></rc>
    <rc><c>Pt</c><c>   1</c></rc>
    <rc><c>Pt</c><c>   1</c></rc>
    <rc><c>Pt</c><c>   1</c></rc>
    <rc><c>Pt</c><c>   1</c></rc>
    <rc><c>Pt</c><c>   1</c></rc>
    <rc><c>Pt</c><c>   1</c></rc>
    <rc><c>Pt</c><c>   1</c></rc>
    <rc><c>Pt</c><c>   1</c></rc>
    <rc><c>Pt</c><c>   1</c></rc>
    <rc><c>Pt</c><c>   1</c></rc>
    <rc><c>Pt</c><c>   1</c></rc>
    <rc><c>Pt</c><c>   1</c></rc>
    <rc><c>Pt</c><c>   1</c></rc>
    <rc><c>Pt</c><c>   1</c></rc>
    <rc><c>Pt</c><c>   1</c></rc>
    <rc><c>Pt</c><c>   1</c></rc>
    <rc><c>Pt</c><c>   1</c></rc>
    <rc><c>Pt</c><c>   1</c></rc>
    <rc><c>Pt</c><c>   1</c></rc>
    <rc><c>Pt</c><c>   1</c></rc>
    <rc><c>Pt</c><c>   1</c></rc>
    <rc><c>Pt</c><c>   1</c></rc>
    <rc><c>Pt</c><c>   1</c></rc>
    <rc><c>Pt</c><c>   1</c></rc>
    <rc><c>Pt</c><c>   1</c></rc>
    <rc><c>Pt</c><c>   1</c></rc>
    <rc><c>Pt</c><c>   1</c></rc>
    <rc><c>Pt</c><c>   1</c></rc>
    <rc><c>Pt</c><c>   1</c></rc>
    <rc><c>Pt</c><c>   1</c></rc>
    <rc><c>Pt</c><c>   1</c></rc>
    <rc><c>Pt</c><c>   1</c></rc>
    <rc><c>Pt</c><c>   1</c></rc>
    <rc><c>Pt</c><c>   1</c></rc>
   </set>
  </array>
  <array name="atomtypes" >
   <dimension dim="1">type</dimension>
   <field type="int">atomspertype</field>
   <field type="string">element</field>
   <field>mass</field>
   <field>valence</field>
   <field type="string">pseudopotential</field>
   <set>
    <rc><c>  38</c><c>Pt</c><c>    195.08000000</c><c>     10.00000000</c><c>  PAW Pt                                </c></rc>
   </set>
  </array>
 </atominfo>
 <structure name="initialpos" >
  <crystal>
   <varray name="basis" >
    <v>      18.00000000       0.00000000       0.00000000 </v>
    <v>       0.00000000      18.00000000       0.00000000 </v>
    <v>       0.00000000       0.00000000      18.00000000 </v>
   </varray>
   <i name="volume">   5832.00000000 </i>
   <varray name="rec_basis" >
    <v>       0.05555556       0.00000000       0.00000000 </v>
    <v>       0.00000000       0.05555556       0.00000000 </v>
    <v>       0.00000000       0.00000000       0.05555556 </v>
   </varray>
  </crystal>
  <varray name="positions" >
   <v>       0.72319657       0.57315667       0.49977953 </v>
   <v>       0.57315473       0.72319744       0.49977983 </v>
   <v>       0.27693045       0.57337903       0.49982336 </v>
   <v>       0.42638316       0.72297395       0.50005220 </v>
   <v>       0.27675145       0.42662606       0.49932761 </v>
   <v>       0.42662619       0.27675410       0.49932764 </v>
   <v>       0.72297448       0.42638359       0.50005288 </v>
   <v>       0.57337307       0.27692999       0.49982366 </v>
   <v>       0.66636745       0.50006756       0.61778606 </v>
   <v>       0.33335873       0.49956684       0.61757745 </v>
   <v>       0.50007026       0.66636614       0.61778518 </v>
   <v>       0.49956855       0.33335984       0.61757443 </v>
   <v>       0.64849144       0.64849166       0.60568932 </v>
   <v>       0.35187684       0.64779539       0.60619109 </v>
   <v>       0.35119617       0.35119592       0.60536243 </v>
   <v>       0.64779271       0.35187722       0.60619325 </v>
   <v>       0.66636796       0.49985397       0.38213169 </v>
   <v>       0.33368010       0.50017014       0.38181969 </v>
   <v>       0.49985674       0.66636695       0.38213169 </v>
   <v>       0.50017190       0.33368061       0.38182332 </v>
   <v>       0.64815061       0.64815097       0.39387187 </v>
   <v>       0.35156645       0.64843556       0.39359718 </v>
   <v>       0.35186858       0.35186824       0.39330721 </v>
   <v>       0.64843247       0.35156638       0.39359645 </v>
   <v>       0.57523730       0.57523785       0.70984185 </v>
   <v>       0.42529751       0.57426953       0.70986487 </v>
   <v>       0.42431457       0.42431480       0.70974921 </v>
   <v>       0.57426666       0.42529859       0.70986427 </v>
   <v>       0.57486907       0.57486908       0.28996599 </v>
   <v>       0.42505975       0.57515471       0.28969408 </v>
   <v>       0.42534762       0.42534694       0.28966091 </v>
   <v>       0.57515315       0.42505962       0.28969631 </v>
   <v>       0.49984216       0.49984017       0.60478399 </v>
   <v>       0.42587606       0.42587374       0.49976494 </v>
   <v>       0.42593947       0.57392446       0.49986202 </v>
   <v>       0.50001298       0.50001024       0.39499180 </v>
   <v>       0.57398177       0.57397963       0.49999705 </v>
   <v>       0.57392538       0.42593686       0.49986217 </v>
  </varray>
  <varray name="selective"  type="logical" >
   <v type="logical" >  T  T  T </v>
   <v type="logical" >  T  T  T </v>
   <v type="logical" >  T  T  T </v>
   <v type="logical" >  T  T  T </v>
   <v type="logical" >  T  T  T </v>
   <v type="logical" >  T  T  T </v>
   <v type="logical" >  T  T  T </v>
   <v type="logical" >  T  T  T </v>
   <v type="logical" >  T  T  T </v>
   <v type="logical" >  T  T  T </v>
   <v type="logical" >  T  T  T </v>
   <v type="logical" >  T  T  T </v>
   <v type="logical" >  T  T  T </v>
   <v type="logical" >  T  T  T </v>
   <v type="logical" >  T  T  T </v>
   <v type="logical" >  T  T  T </v>
   <v type="logical" >  T  T  T </v>
   <v type="logical" >  T  T  T </v>
   <v type="logical" >  T  T  T </v>
   <v type="logical" >  T  T  T </v>
   <v type="logical" >  T  T  T </v>
   <v type="logical" >  T  T  T </v>
   <v type="logical" >  T  T  T </v>
   <v type="logical" >  T  T  T </v>
   <v type="logical" >  T  T  T </v>
   <v type="logical" >  T  T  T </v>
   <v type="logical" >  T  T  T </v>
   <v type="logical" >  T  T  T </v>
   <v type="logical" >  T  T  T </v>
   <v type="logical" >  T  T  T </v>
   <v type="logical" >  T  T  T </v>
   <v type="logical" >  T  T  T </v>
   <v type="logical" >  T  T  T </v>
   <v type="logical" >  T  T  T </v>
   <v type="logical" >  T  T  T </v>
   <v type="logical" >  T  T  T </v>
   <v type="logical" >  T  T  T </v>
   <v type="logical" >  T  T  T </v>
  </varray>
  <nose>
   <v>      -3.00000000       0.00000000       0.00010000       0.00010000 </v>
  </nose>
 </structure>
 <calculation>
  <scstep>
   <time name="diag">    2.89    2.89</time>
   <time name="diis">    6.59    6.59</time>
   <time name="orth">    0.28    0.28</time>
   <time name="total">   12.00   12.00</time>
   <energy>
    <i name="alphaZ">    359.13074794 </i>
    <i name="ewald">  67126.92535035 </i>
    <i name="hartreedc"> -94083.59087270 </i>
    <i name="XCdc">     94.76277483 </i>
    <i name="pawpsdc">  21791.31347945 </i>
    <i name="pawaedc"> -20711.90458497 </i>
    <i name="eentropy">     -0.02405365 </i>
    <i name="bandstr">   2385.82836442 </i>
    <i name="atom">  27739.70997598 </i>
    <i name="e_fr_energy">   4702.15118164 </i>
    <i name="e_wo_entrp">   4702.17523529 </i>
    <i name="e_0_energy">   4702.15919952 </i>
   </energy>
  </scstep>
  <scstep>
   <time name="diag">    2.94    2.94</time>
   <time name="diis">    6.59    6.60</time>
   <time name="orth">    0.28    0.28</time>
   <time name="total">    9.82    9.82</time>
   <energy>
    <i name="e_fr_energy">   2677.23583125 </i>
    <i name="e_wo_entrp">   2677.20977615 </i>
    <i name="e_0_energy">   2677.22714622 </i>
   </energy>
  </scstep>
  <scstep>
   <time name="diag">    2.91    2.92</time>
   <time name="diis">    6.58    6.58</time>
   <time name="orth">    0.27    0.28</time>
   <time name="total">    9.77    9.78</time>
   <energy>
    <i name="e_fr_energy">   1756.66832780 </i>
    <i name="e_wo_entrp">   1756.70562949 </i>
    <i name="e_0_energy">   1756.68076170 </i>
   </energy>
  </scstep>
  <scstep>
   <time name="diag">    2.91    2.91</time>
   <time name="diis">    6.59    6.59</time>
   <time name="orth">    0.28    0.28</time>
   <time name="total">    9.78    9.78</time>
   <energy>
    <i name="e_fr_energy">   1041.60022185 </i>
    <i name="e_wo_entrp">   1041.50145254 </i>
    <i name="e_0_energy">   1041.56729875 </i>
   </energy>
  </scstep>
  <scstep>
   <time name="diag">    2.94    2.94</time>
   <time name="diis">    6.59    6.59</time>
   <time name="orth">    0.28    0.28</time>
   <time name="total">    9.81    9.82</time>
   <energy>
    <i name="e_fr_energy">    587.54833557 </i>
    <i name="e_wo_entrp">    587.55002866 </i>
    <i name="e_0_energy">    587.54889994 </i>
   </energy>
  </scstep>
  <scstep>
   <time name="diag">    2.94    2.94</time>
   <time name="diis">    6.61    6.61</time>
   <time name="orth">    0.27    0.28</time>
   <time name="total">    9.83    9.83</time>
   <energy>
    <i name="e_fr_energy">    280.37114851 </i>
    <i name="e_wo_entrp">    280.45931855 </i>
    <i name="e_0_energy">    280.40053852 </i>
   </energy>
  </scstep>
  <scstep>
   <time name="diag">    2.92    2.92</time>
   <time name="diis">    6.58    6.58</time>
   <time name="orth">    0.28    0.28</time>
   <time name="total">    9.78    9.79</time>
   <energy>
    <i name="e_fr_energy">    107.60069611 </i>
    <i name="e_wo_entrp">    107.65049616 </i>
    <i name="e_0_energy">    107.61729613 </i>
   </energy>
  </scstep>
  <scstep>
   <time name="diag">    2.93    2.93</time>
   <time name="diis">    6.58    6.58</time>
   <time name="orth">    0.28    0.28</time>
   <time name="total">    9.79    9.79</time>
   <energy>
    <i name="e_fr_energy">    -15.48771436 </i>
    <i name="e_wo_entrp">    -15.45484261 </i>
    <i name="e_0_energy">    -15.47675711 </i>
   </energy>
  </scstep>
  <scstep>
   <time name="diag">    2.91    2.92</time>
   <time name="diis">   17.16   17.17</time>
   <time name="orth">    0.28    0.28</time>
   <time name="total">   20.36   20.37</time>
   <energy>
    <i name="e_fr_energy">   -117.35669354 </i>
    <i name="e_wo_entrp">   -117.18324141 </i>
    <i name="e_0_energy">   -117.29887617 </i>
   </energy>
  </scstep>
  <scstep>
   <time name="diag">    2.91    2.91</time>
   <time name="diis">   19.40   19.41</time>
   <time name="orth">    0.28    0.28</time>
   <time name="total">   22.59   22.60</time>
   <energy>
    <i name="e_fr_energy">   -162.23466531 </i>
    <i name="e_wo_entrp">   -162.22288763 </i>
    <i name="e_0_energy">   -162.23073942 </i>
   </energy>
  </scstep>
  <scstep>
   <time name="diag">    2.91    2.91</time>
   <time name="diis">   20.11   20.12</time>
   <time name="orth">    0.28    0.28</time>
   <time name="total">   23.31   23.32</time>
   <energy>
    <i name="e_fr_energy">   -182.92040089 </i>
    <i name="e_wo_entrp">   -182.90415834 </i>
    <i name="e_0_energy">   -182.91498671 </i>
   </energy>
  </scstep>
  <scstep>
   <time name="diag">    2.91    2.91</time>
   <time name="diis">   20.27   20.28</time>
   <time name="orth">    0.28    0.28</time>
   <time name="total">   24.63   24.64</time>
   <energy>
    <i name="e_fr_energy">   -191.76661475 </i>
    <i name="e_wo_entrp">   -191.67572876 </i>
    <i name="e_0_energy">   -191.73631942 </i>
   </energy>
  </scstep>
  <scstep>
   <time name="diag">    2.90    2.90</time>
   <time name="diis">   13.71   13.72</time>
   <time name="orth">    0.28    0.28</time>
   <time name="total">   20.19   20.20</time>
   <energy>
    <i name="e_fr_energy">   -183.53969848 </i>
    <i name="e_wo_entrp">   -183.49803635 </i>
    <i name="e_0_energy">   -183.52581111 </i>
   </energy>
  </scstep>
  <scstep>
   <time name="diag">    2.90    2.90</time>
   <time name="diis">   15.49   15.50</time>
   <time name="orth">    0.28    0.28</time>
   <time name="total">   21.99   22.00</time>
   <energy>
    <i name="e_fr_energy">   -185.78187348 </i>
    <i name="e_wo_entrp">   -185.64375608 </i>
    <i name="e_0_energy">   -185.73583435 </i>
   </energy>
  </scstep>
  <scstep>
   <time name="diag">    2.88    2.88</time>
   <time name="diis">   16.09   16.09</time>
   <time name="orth">    0.27    0.27</time>
   <time name="total">   22.51   22.52</time>
   <energy>
    <i name="e_fr_energy">   -185.75602652 </i>
    <i name="e_wo_entrp">   -185.56789230 </i>
    <i name="e_0_energy">   -185.69331511 </i>
   </energy>
  </scstep>
  <scstep>
   <time name="diag">    2.90    2.90</time>
   <time name="diis">   16.45   16.47</time>
   <time name="orth">    0.28    0.28</time>
   <time name="total">   22.88   22.90</time>
   <energy>
    <i name="e_fr_energy">   -186.47847051 </i>
    <i name="e_wo_entrp">   -186.29533992 </i>
    <i name="e_0_energy">   -186.41742698 </i>
   </energy>
  </scstep>
  <scstep>
   <time name="diag">    2.92    2.92</time>
   <time name="diis">   15.32   15.34</time>
   <time name="orth">    0.28    0.28</time>
   <time name="total">   21.79   21.81</time>
   <energy>
    <i name="e_fr_energy">   -186.84281438 </i>
    <i name="e_wo_entrp">   -186.68143076 </i>
    <i name="e_0_energy">   -186.78901984 </i>
   </energy>
  </scstep>
  <scstep>
   <time name="diag">    2.90    2.90</time>
   <time name="diis">   15.65   15.66</time>
   <time name="orth">    0.28    0.28</time>
   <time name="total">   22.11   22.12</time>
   <energy>
    <i name="e_fr_energy">   -187.00432645 </i>
    <i name="e_wo_entrp">   -186.87777169 </i>
    <i name="e_0_energy">   -186.96214153 </i>
   </energy>
  </scstep>
  <scstep>
   <time name="diag">    2.88    2.88</time>
   <time name="diis">   15.74   15.75</time>
   <time name="orth">    0.27    0.28</time>
   <time name="total">   22.19   22.21</time>
   <energy>
    <i name="e_fr_energy">   -187.14746009 </i>
    <i name="e_wo_entrp">   -187.02444114 </i>
    <i name="e_0_energy">   -187.10645377 </i>
   </energy>
  </scstep>
  <scstep>
   <time name="diag">    2.86    2.86</time>
   <time name="diis">   14.39   14.40</time>
   <time name="orth">    0.28    0.28</time>
   <time name="total">   20.84   20.86</time>
   <energy>
    <i name="e_fr_energy">   -187.16400015 </i>
    <i name="e_wo_entrp">   -187.05718534 </i>
    <i name="e_0_energy">   -187.12839521 </i>
   </energy>
  </scstep>
  <scstep>
   <time name="diag">    2.91    2.91</time>
   <time name="diis">   15.19   15.20</time>
   <time name="orth">    0.28    0.28</time>
   <time name="total">   21.69   21.71</time>
   <energy>
    <i name="e_fr_energy">   -187.17780823 </i>
    <i name="e_wo_entrp">   -187.08280814 </i>
    <i name="e_0_energy">   -187.14614154 </i>
   </energy>
  </scstep>
  <scstep>
   <time name="diag">    2.90    2.90</time>
   <time name="diis">   14.47   14.48</time>
   <time name="orth">    0.28    0.28</time>
   <time name="total">   21.02   21.03</time>
   <energy>
    <i name="e_fr_energy">   -187.18722438 </i>
    <i name="e_wo_entrp">   -187.06984812 </i>
    <i name="e_0_energy">   -187.14809896 </i>
   </energy>
  </scstep>
  <scstep>
   <time name="diag">    2.84    2.84</time>
   <time name="diis">   14.34   14.34</time>
   <time name="orth">    0.27    0.28</time>
   <time name="total">   20.77   20.78</time>
   <energy>
    <i name="e_fr_energy">   -187.21093817 </i>
    <i name="e_wo_entrp">   -187.08791480 </i>
    <i name="e_0_energy">   -187.16993038 </i>
   </energy>
  </scstep>
  <scstep>
   <time name="diag">    2.83    2.83</time>
   <time name="diis">   14.30   14.30</time>
   <time name="orth">    0.28    0.28</time>
   <time name="total">   20.73   20.75</time>
   <energy>
    <i name="e_fr_energy">   -187.22217823 </i>
    <i name="e_wo_entrp">   -187.10212942 </i>
    <i name="e_0_energy">   -187.18216196 </i>
   </energy>
  </scstep>
  <scstep>
   <time name="diag">    2.89    2.89</time>
   <time name="diis">   14.15   14.16</time>
   <time name="orth">    0.28    0.28</time>
   <time name="total">   20.66   20.67</time>
   <energy>
    <i name="e_fr_energy">   -187.22472378 </i>
    <i name="e_wo_entrp">   -187.10663601 </i>
    <i name="e_0_energy">   -187.18536119 </i>
   </energy>
  </scstep>
  <scstep>
   <time name="diag">    2.90    2.90</time>
   <time name="diis">   14.10   14.10</time>
   <time name="orth">    0.28    0.28</time>
   <time name="total">   20.61   20.62</time>
   <energy>
    <i name="e_fr_energy">   -187.22386200 </i>
    <i name="e_wo_entrp">   -187.10825684 </i>
    <i name="e_0_energy">   -187.18532695 </i>
   </energy>
  </scstep>
  <scstep>
   <time name="diag">    2.85    2.85</time>
   <time name="diis">   12.91   12.91</time>
   <time name="orth">    0.28    0.28</time>
   <time name="total">   19.38   19.38</time>
   <energy>
    <i name="e_fr_energy">   -187.22144380 </i>
    <i name="e_wo_entrp">   -187.10708110 </i>
    <i name="e_0_energy">   -187.18332290 </i>
   </energy>
  </scstep>
  <scstep>
   <time name="diag">    2.90    2.90</time>
   <time name="diis">   12.67   12.68</time>
   <time name="orth">    0.28    0.28</time>
   <time name="total">   19.22   19.23</time>
   <energy>
    <i name="e_fr_energy">   -187.21988481 </i>
    <i name="e_wo_entrp">   -187.10551156 </i>
    <i name="e_0_energy">   -187.18176040 </i>
   </energy>
  </scstep>
  <scstep>
   <time name="diag">    2.91    2.91</time>
   <time name="diis">   11.93   11.96</time>
   <time name="orth">    0.28    0.28</time>
   <time name="total">   18.50   18.54</time>
   <energy>
    <i name="e_fr_energy">   -187.21977635 </i>
    <i name="e_wo_entrp">   -187.10583998 </i>
    <i name="e_0_energy">   -187.18179756 </i>
   </energy>
  </scstep>
  <scstep>
   <time name="diag">    2.91    2.92</time>
   <time name="diis">    8.12    8.15</time>
   <time name="orth">    0.27    0.28</time>
   <time name="total">   14.66   14.70</time>
   <energy>
    <i name="e_fr_energy">   -187.22032605 </i>
    <i name="e_wo_entrp">   -187.10650926 </i>
    <i name="e_0_energy">   -187.18238712 </i>
   </energy>
  </scstep>
  <scstep>
   <time name="diag">    2.88    2.89</time>
   <time name="diis">    7.71    7.73</time>
   <time name="orth">    0.28    0.28</time>
   <time name="total">   14.23   14.27</time>
   <energy>
    <i name="e_fr_energy">   -187.22160782 </i>
    <i name="e_wo_entrp">   -187.10801464 </i>
    <i name="e_0_energy">   -187.18374343 </i>
   </energy>
  </scstep>
  <scstep>
   <time name="diag">    2.85    2.86</time>
   <time name="diis">    7.75    7.77</time>
   <time name="orth">    0.27    0.28</time>
   <time name="total">   14.25   14.29</time>
   <energy>
    <i name="e_fr_energy">   -187.22298477 </i>
    <i name="e_wo_entrp">   -187.10916223 </i>
    <i name="e_0_energy">   -187.18504392 </i>
   </energy>
  </scstep>
  <scstep>
   <time name="diag">    2.87    2.87</time>
   <time name="diis">    7.55    7.57</time>
   <time name="orth">    0.27    0.28</time>
   <time name="total">   14.09   14.13</time>
   <energy>
    <i name="e_fr_energy">   -187.22419354 </i>
    <i name="e_wo_entrp">   -187.11053972 </i>
    <i name="e_0_energy">   -187.18630893 </i>
   </energy>
  </scstep>
  <scstep>
   <time name="diag">    2.87    2.88</time>
   <time name="diis">    8.02    8.04</time>
   <time name="orth">    0.28    0.28</time>
   <time name="total">   14.56   14.60</time>
   <energy>
    <i name="e_fr_energy">   -187.22550603 </i>
    <i name="e_wo_entrp">   -187.11193579 </i>
    <i name="e_0_energy">   -187.18764928 </i>
   </energy>
  </scstep>
  <scstep>
   <time name="diag">    2.82    2.83</time>
   <time name="diis">    7.75    7.77</time>
   <time name="orth">    0.28    0.28</time>
   <time name="total">   14.26   14.30</time>
   <energy>
    <i name="e_fr_energy">   -187.22650694 </i>
    <i name="e_wo_entrp">   -187.11303536 </i>
    <i name="e_0_energy">   -187.18868308 </i>
   </energy>
  </scstep>
  <scstep>
   <time name="diag">    2.81    2.82</time>
   <time name="diis">    8.12    8.15</time>
   <time name="orth">    0.28    0.28</time>
   <time name="total">   14.71   14.75</time>
   <energy>
    <i name="e_fr_energy">   -187.22748925 </i>
    <i name="e_wo_entrp">   -187.11413388 </i>
    <i name="e_0_energy">   -187.18970413 </i>
   </energy>
  </scstep>
  <scstep>
   <time name="diag">    2.86    2.86</time>
   <time name="diis">    7.38    7.40</time>
   <time name="orth">    0.28    0.28</time>
   <time name="total">   13.97   14.01</time>
   <energy>
    <i name="e_fr_energy">   -187.22785855 </i>
    <i name="e_wo_entrp">   -187.11444853 </i>
    <i name="e_0_energy">   -187.19005521 </i>
   </energy>
  </scstep>
  <scstep>
   <time name="diag">    2.93    2.93</time>
   <time name="diis">    6.69    6.71</time>
   <time name="orth">    0.27    0.28</time>
   <time name="total">   13.37   13.41</time>
   <energy>
    <i name="e_fr_energy">   -187.22799392 </i>
    <i name="e_wo_entrp">   -187.11458730 </i>
    <i name="e_0_energy">   -187.19019171 </i>
   </energy>
  </scstep>
  <scstep>
   <time name="diag">    2.86    2.87</time>
   <time name="diis">    6.10    6.12</time>
   <time name="orth">    0.28    0.28</time>
   <time name="total">   11.47   11.51</time>
   <energy>
    <i name="alphaZ">    359.13074794 </i>
    <i name="ewald">  67126.92535035 </i>
    <i name="hartreedc"> -93857.74838761 </i>
    <i name="XCdc">     83.84865421 </i>
    <i name="pawpsdc">  22460.18528024 </i>
    <i name="pawaedc"> -21462.04456965 </i>
    <i name="eentropy">     -0.11340128 </i>
    <i name="bandstr">  -2637.12170165 </i>
    <i name="atom">  27739.70997598 </i>
    <i name="e_fr_energy">   -187.22805147 </i>
    <i name="e_wo_entrp">   -187.11465018 </i>
    <i name="e_0_energy">   -187.19025104 </i>
   </energy>
  </scstep>
  <structure>
   <crystal>
    <varray name="basis" >
     <v>      18.00000000       0.00000000       0.00000000 </v>
     <v>       0.00000000      18.00000000       0.00000000 </v>
     <v>       0.00000000       0.00000000      18.00000000 </v>
    </varray>
    <i name="volume">   5832.00000000 </i>
    <varray name="rec_basis" >
     <v>       0.05555556       0.00000000       0.00000000 </v>
     <v>       0.00000000       0.05555556       0.00000000 </v>
     <v>       0.00000000       0.00000000       0.05555556 </v>
    </varray>
   </crystal>
   <varray name="positions" >
    <v>       0.72319657       0.57315667       0.49977953 </v>
    <v>       0.57315473       0.72319744       0.49977983 </v>
    <v>       0.27693045       0.57337903       0.49982336 </v>
    <v>       0.42638316       0.72297395       0.50005220 </v>
    <v>       0.27675145       0.42662606       0.49932761 </v>
    <v>       0.42662619       0.27675410       0.49932764 </v>
    <v>       0.72297448       0.42638359       0.50005288 </v>
    <v>       0.57337307       0.27692999       0.49982366 </v>
    <v>       0.66636745       0.50006756       0.61778606 </v>
    <v>       0.33335873       0.49956684       0.61757745 </v>
    <v>       0.50007026       0.66636614       0.61778518 </v>
    <v>       0.49956855       0.33335984       0.61757443 </v>
    <v>       0.64849144       0.64849166       0.60568932 </v>
    <v>       0.35187684       0.64779539       0.60619109 </v>
    <v>       0.35119617       0.35119592       0.60536243 </v>
    <v>       0.64779271       0.35187722       0.60619325 </v>
    <v>       0.66636796       0.49985397       0.38213169 </v>
    <v>       0.33368010       0.50017014       0.38181969 </v>
    <v>       0.49985674       0.66636695       0.38213169 </v>
    <v>       0.50017190       0.33368061       0.38182332 </v>
    <v>       0.64815061       0.64815097       0.39387187 </v>
    <v>       0.35156645       0.64843556       0.39359718 </v>
    <v>       0.35186858       0.35186824       0.39330721 </v>
    <v>       0.64843247       0.35156638       0.39359645 </v>
    <v>       0.57523730       0.57523785       0.70984185 </v>
    <v>       0.42529751       0.57426953       0.70986487 </v>
    <v>       0.42431457       0.42431480       0.70974921 </v>
    <v>       0.57426666       0.42529859       0.70986427 </v>
    <v>       0.57486907       0.57486908       0.28996599 </v>
    <v>       0.42505975       0.57515471       0.28969408 </v>
    <v>       0.42534762       0.42534694       0.28966091 </v>
    <v>       0.57515315       0.42505962       0.28969631 </v>
    <v>       0.49984216       0.49984017       0.60478399 </v>
    <v>       0.42587606       0.42587374       0.49976494 </v>
    <v>       0.42593947       0.57392446       0.49986202 </v>
    <v>       0.50001298       0.50001024       0.39499180 </v>
    <v>       0.57398177       0.57397963       0.49999705 </v>
    <v>       0.57392538       0.42593686       0.49986217 </v>
   </varray>
  </structure>
  <varray name="forces" >
   <v>       0.00054483       0.00341321       0.00453444 </v>
   <v>       0.00352782       0.00030718       0.00453126 </v>
   <v>      -0.00281804       0.00073804       0.00168976 </v>
   <v>      -0.00063002       0.00355090       0.00117308 </v>
   <v>      -0.00013015      -0.00227528       0.00248743 </v>
   <v>      -0.00311775      -0.00101202       0.00246922 </v>
   <v>       0.00381024      -0.00082114       0.00109244 </v>
   <v>       0.00193436      -0.00357610       0.00171527 </v>
   <v>      -0.00704126      -0.00085588      -0.00774937 </v>
   <v>       0.00631584       0.00259856      -0.00984068 </v>
   <v>      -0.00162614      -0.00715857      -0.00788146 </v>
   <v>       0.00188681       0.00612915      -0.00908149 </v>
   <v>      -0.00015050      -0.00029078       0.00789565 </v>
   <v>      -0.00588123       0.00713298       0.00343666 </v>
   <v>      -0.00031112      -0.00009878       0.00649477 </v>
   <v>       0.00788169      -0.00652962       0.00339773 </v>
   <v>       0.00167395       0.00094801       0.00332312 </v>
   <v>      -0.00043063      -0.00069208       0.00427097 </v>
   <v>       0.00026350       0.00181101       0.00347264 </v>
   <v>      -0.00125787      -0.00060710       0.00320497 </v>
   <v>       0.00330879       0.00300569       0.00619677 </v>
   <v>      -0.00263002       0.00198329       0.00667179 </v>
   <v>      -0.00261964      -0.00255844       0.00443147 </v>
   <v>       0.00260609      -0.00300688       0.00676809 </v>
   <v>      -0.00719107      -0.00699462      -0.00606460 </v>
   <v>      -0.00051380      -0.00011413      -0.00762052 </v>
   <v>       0.00662667       0.00671155      -0.00868327 </v>
   <v>       0.00003937      -0.00055438      -0.00693570 </v>
   <v>       0.00295767       0.00269749       0.00052547 </v>
   <v>      -0.00333626       0.00278661       0.00254075 </v>
   <v>      -0.00276794      -0.00282610       0.00181330 </v>
   <v>       0.00283769      -0.00332677       0.00222154 </v>
   <v>      -0.00041139       0.00027241       0.00031005 </v>
   <v>      -0.00534451      -0.00426871      -0.00411974 </v>
   <v>      -0.00571828       0.00442657      -0.00323040 </v>
   <v>      -0.00113219      -0.00052015      -0.00878078 </v>
   <v>       0.00424409       0.00470537      -0.00337379 </v>
   <v>       0.00460042      -0.00513046      -0.00330684 </v>
  </varray>
  <energy>
   <i name="e_fr_energy">   -187.22805147 </i>
   <i name="e_wo_entrp">   -187.19025104 </i>
   <i name="e_0_energy">     -0.11340128 </i>
  </energy>
  <time name="totalsc">  680.87  681.66</time>
 </calculation>
 <calculation>
  <scstep>
   <time name="diag">    2.87    2.88</time>
   <time name="diis">   11.77   11.80</time>
   <time name="orth">    0.28    0.28</time>
   <time name="total">   18.30   18.35</time>
   <energy>
    <i name="alphaZ">    359.13074794 </i>
    <i name="ewald">  67127.06332610 </i>
    <i name="hartreedc"> -93857.98685890 </i>
    <i name="XCdc">     83.84961364 </i>
    <i name="pawpsdc">  22460.26151220 </i>
    <i name="pawaedc"> -21462.12240285 </i>
    <i name="eentropy">     -0.11341753 </i>
    <i name="bandstr">  -2637.02058787 </i>
    <i name="atom">  27739.70997598 </i>
    <i name="e_fr_energy">   -187.22809128 </i>
    <i name="e_wo_entrp">   -187.11467375 </i>
    <i name="e_0_energy">   -187.19028544 </i>
   </energy>
  </scstep>
  <scstep>
   <time name="diag">    2.88    2.88</time>
   <time name="diis">    7.05    7.06</time>
   <time name="orth">    0.28    0.28</time>
   <time name="total">   12.43   12.46</time>
   <energy>
    <i name="alphaZ">    359.13074794 </i>
    <i name="ewald">  67127.06332610 </i>
    <i name="hartreedc"> -93858.01060044 </i>
    <i name="XCdc">     83.84955480 </i>
    <i name="pawpsdc">  22460.29239788 </i>
    <i name="pawaedc"> -21462.15437503 </i>
    <i name="eentropy">     -0.11341089 </i>
    <i name="bandstr">  -2636.99573406 </i>
    <i name="atom">  27739.70997598 </i>
    <i name="e_fr_energy">   -187.22811772 </i>
    <i name="e_wo_entrp">   -187.11470683 </i>
    <i name="e_0_energy">   -187.19031409 </i>
   </energy>
  </scstep>
  <structure>
   <crystal>
    <varray name="basis" >
     <v>      18.00000000       0.00000000       0.00000000 </v>
     <v>       0.00000000      18.00000000       0.00000000 </v>
     <v>       0.00000000       0.00000000      18.00000000 </v>
    </varray>
    <i name="volume">   5832.00000000 </i>
    <varray name="rec_basis" >
     <v>       0.05555556       0.00000000       0.00000000 </v>
     <v>       0.00000000       0.05555556       0.00000000 </v>
     <v>       0.00000000       0.00000000       0.05555556 </v>
    </varray>
   </crystal>
   <varray name="positions" >
    <v>       0.72319687       0.57315850       0.49978196 </v>
    <v>       0.57315662       0.72319760       0.49978226 </v>
    <v>       0.27692894       0.57337942       0.49982427 </v>
    <v>       0.42638282       0.72297585       0.50005283 </v>
    <v>       0.27675138       0.42662484       0.49932894 </v>
    <v>       0.42662452       0.27675356       0.49932896 </v>
    <v>       0.72297652       0.42638315       0.50005346 </v>
    <v>       0.57337410       0.27692808       0.49982458 </v>
    <v>       0.66636368       0.50006710       0.61778191 </v>
    <v>       0.33336211       0.49956823       0.61757218 </v>
    <v>       0.50006939       0.66636230       0.61778096 </v>
    <v>       0.49956956       0.33336312       0.61756957 </v>
    <v>       0.64849136       0.64849151       0.60569356 </v>
    <v>       0.35187368       0.64779922       0.60619294 </v>
    <v>       0.35119600       0.35119586       0.60536591 </v>
    <v>       0.64779693       0.35187372       0.60619507 </v>
    <v>       0.66636886       0.49985448       0.38213347 </v>
    <v>       0.33367987       0.50016977       0.38182197 </v>
    <v>       0.49985688       0.66636792       0.38213355 </v>
    <v>       0.50017122       0.33368028       0.38182504 </v>
    <v>       0.64815238       0.64815258       0.39387519 </v>
    <v>       0.35156504       0.64843663       0.39360076 </v>
    <v>       0.35186718       0.35186687       0.39330959 </v>
    <v>       0.64843387       0.35156477       0.39360008 </v>
    <v>       0.57523345       0.57523410       0.70983860 </v>
    <v>       0.42529724       0.57426946       0.70986079 </v>
    <v>       0.42431812       0.42431840       0.70974456 </v>
    <v>       0.57426668       0.42529829       0.70986056 </v>
    <v>       0.57487065       0.57487052       0.28996627 </v>
    <v>       0.42505796       0.57515620       0.28969544 </v>
    <v>       0.42534613       0.42534543       0.28966188 </v>
    <v>       0.57515467       0.42505784       0.28969750 </v>
    <v>       0.49984194       0.49984031       0.60478415 </v>
    <v>       0.42587319       0.42587145       0.49976273 </v>
    <v>       0.42593640       0.57392683       0.49986028 </v>
    <v>       0.50001237       0.50000997       0.39498710 </v>
    <v>       0.57398405       0.57398216       0.49999524 </v>
    <v>       0.57392784       0.42593411       0.49986039 </v>
   </varray>
  </structure>
  <varray name="forces" >
   <v>       0.00008920       0.00080057       0.00164418 </v>
   <v>       0.00125139       0.00025028       0.00163664 </v>
   <v>      -0.00172689       0.00095666       0.00049193 </v>
   <v>       0.00007803       0.00130700       0.00049437 </v>
   <v>      -0.00113543      -0.00129920       0.00071032 </v>
   <v>      -0.00084377      -0.00108687       0.00090223 </v>
   <v>       0.00069192       0.00012864       0.00050059 </v>
   <v>       0.00084218      -0.00082224       0.00074015 </v>
   <v>      -0.00168844      -0.00116566      -0.00329284 </v>
   <v>       0.00083352       0.00138827      -0.00333266 </v>
   <v>      -0.00095443      -0.00150250      -0.00336517 </v>
   <v>       0.00158567       0.00150694      -0.00363323 </v>
   <v>       0.00038583       0.00032006       0.00259060 </v>
   <v>      -0.00245901       0.00317405       0.00026340 </v>
   <v>      -0.00077594      -0.00095143       0.00267794 </v>
   <v>       0.00235163      -0.00175218      -0.00009459 </v>
   <v>       0.00004577       0.00031667       0.00164932 </v>
   <v>      -0.00020331      -0.00004813       0.00113137 </v>
   <v>       0.00031324       0.00019416       0.00139774 </v>
   <v>      -0.00013744      -0.00022455       0.00125957 </v>
   <v>       0.00082257       0.00083488       0.00201146 </v>
   <v>      -0.00100468       0.00080826       0.00219874 </v>
   <v>      -0.00144242      -0.00126227       0.00105210 </v>
   <v>       0.00075762      -0.00070441       0.00268252 </v>
   <v>      -0.00224109      -0.00254295      -0.00052414 </v>
   <v>      -0.00116407       0.00077842      -0.00149776 </v>
   <v>       0.00236851       0.00203932      -0.00140852 </v>
   <v>       0.00106513      -0.00143074      -0.00237866 </v>
   <v>       0.00104956       0.00105231       0.00137871 </v>
   <v>      -0.00110184       0.00096481       0.00163714 </v>
   <v>      -0.00096801      -0.00088007       0.00068783 </v>
   <v>       0.00123099      -0.00108726       0.00164408 </v>
   <v>       0.00027084      -0.00021792      -0.00339436 </v>
   <v>      -0.00029314      -0.00048559      -0.00164665 </v>
   <v>      -0.00089842       0.00132204      -0.00137067 </v>
   <v>       0.00027940       0.00012331      -0.00254006 </v>
   <v>       0.00099173       0.00056321      -0.00182818 </v>
   <v>       0.00173360      -0.00136590      -0.00107546 </v>
  </varray>
  <energy>
   <i name="e_fr_energy">   -187.22811772 </i>
   <i name="e_wo_entrp">   -187.19031409 </i>
   <i name="e_0_energy">     -0.11341089 </i>
  </energy>
  <time name="totalsc">   41.29   41.38</time>
  <eigenvalues>
   <array>
    <dimension dim="1">band</dimension>
    <dimension dim="2">kpoint</dimension>
    <dimension dim="3">spin</dimension>
    <field>eigene</field>
    <field>occ</field>
    <set>
     <set comment="spin 1">
      <set comment="kpoint 1">
       <r>  -12.5907    1.0000 </r>
       <r>  -11.1458    1.0000 </r>
       <r>  -11.1454    1.0000 </r>
       <r>  -11.1453    1.0000 </r>
       <r>  -10.7388    1.0000 </r>
       <r>  -10.2508    1.0000 </r>
       <r>  -10.2484    1.0000 </r>
       <r>  -10.2475    1.0000 </r>
       <r>  -10.2475    1.0000 </r>
       <r>  -10.2423    1.0000 </r>
       <r>  -10.2074    1.0000 </r>
       <r>  -10.1592    1.0000 </r>
       <r>  -10.1574    1.0000 </r>
       <r>  -10.1566    1.0000 </r>
       <r>   -9.7945    1.0000 </r>
       <r>   -9.7944    1.0000 </r>
       <r>   -9.7934    1.0000 </r>
       <r>   -9.7595    1.0000 </r>
       <r>   -9.5210    1.0000 </r>
       <r>   -9.5197    1.0000 </r>
       <r>   -9.2604    1.0000 </r>
       <r>   -9.2601    1.0000 </r>
       <r>   -9.2597    1.0000 </r>
       <r>   -9.2278    1.0000 </r>
       <r>   -9.2276    1.0000 </r>
       <r>   -9.2275    1.0000 </r>
       <r>   -9.1831    1.0000 </r>
       <r>   -9.1828    1.0000 </r>
       <r>   -9.1818    1.0000 </r>
       <r>   -9.1545    1.0000 </r>
       <r>   -9.1543    1.0000 </r>
       <r>   -9.1526    1.0000 </r>
       <r>   -9.1394    1.0000 </r>
       <r>   -9.1380    1.0000 </r>
       <r>   -9.1378    1.0000 </r>
       <r>   -8.9664    1.0000 </r>
       <r>   -8.9661    1.0000 </r>
       <r>   -8.9341    1.0000 </r>
       <r>   -8.9340    1.0000 </r>
       <r>   -8.9338    1.0000 </r>
       <r>   -8.9146    1.0000 </r>
       <r>   -8.8056    1.0000 </r>
       <r>   -8.8053    1.0000 </r>
       <r>   -8.5898    1.0000 </r>
       <r>   -8.5113    1.0000 </r>
       <r>   -8.5106    1.0000 </r>
       <r>   -8.5094    1.0000 </r>
       <r>   -8.4660    1.0000 </r>
       <r>   -8.4646    1.0000 </r>
       <r>   -8.4640    1.0000 </r>
       <r>   -8.1618    1.0000 </r>
       <r>   -8.1598    1.0000 </r>
       <r>   -8.1563    1.0000 </r>
       <r>   -8.1532    1.0000 </r>
       <r>   -8.1518    1.0000 </r>
       <r>   -8.1506    1.0000 </r>
       <r>   -8.0618    1.0000 </r>
       <r>   -8.0601    1.0000 </r>
       <r>   -8.0044    1.0000 </r>
       <r>   -8.0037    1.0000 </r>
       <r>   -8.0034    1.0000 </r>
       <r>   -7.9911    1.0000 </r>
       <r>   -7.9858    1.0000 </r>
       <r>   -7.8742    1.0000 </r>
       <r>   -7.8741    1.0000 </r>
       <r>   -7.8737    1.0000 </r>
       <r>   -7.8388    1.0000 </r>
       <r>   -7.7729    1.0000 </r>
       <r>   -7.7448    1.0000 </r>
       <r>   -7.7427    1.0000 </r>
       <r>   -7.7417    1.0000 </r>
       <r>   -7.7396    1.0000 </r>
       <r>   -7.7376    1.0000 </r>
       <r>   -7.7375    1.0000 </r>
       <r>   -7.5873    1.0000 </r>
       <r>   -7.5836    1.0000 </r>
       <r>   -7.5788    1.0000 </r>
       <r>   -7.2587    1.0000 </r>
       <r>   -7.2578    1.0000 </r>
       <r>   -7.2574    1.0000 </r>
       <r>   -7.2284    1.0000 </r>
       <r>   -7.2195    1.0000 </r>
       <r>   -7.1946    1.0000 </r>
       <r>   -7.1901    1.0000 </r>
       <r>   -7.1505    1.0000 </r>
       <r>   -7.1429    1.0000 </r>
       <r>   -7.1388    1.0000 </r>
       <r>   -6.9371    1.0000 </r>
       <r>   -6.9311    1.0000 </r>
       <r>   -6.9284    1.0000 </r>
       <r>   -6.7354    1.0000 </r>
       <r>   -6.7338    1.0000 </r>
       <r>   -6.7311    1.0000 </r>
       <r>   -6.6173    1.0000 </r>
       <r>   -6.6158    1.0000 </r>
       <r>   -6.6120    1.0000 </r>
       <r>   -6.5525    1.0000 </r>
       <r>   -6.5517    1.0000 </r>
       <r>   -6.5498    1.0000 </r>
       <r>   -6.5231    1.0000 </r>
       <r>   -6.5216    1.0000 </r>
       <r>   -6.5205    1.0000 </r>
       <r>   -6.4125    1.0000 </r>
       <r>   -6.4097    1.0000 </r>
       <r>   -6.4045    1.0000 </r>
       <r>   -6.3583    1.0000 </r>
       <r>   -6.3583    1.0000 </r>
       <r>   -6.3578    1.0000 </r>
       <r>   -6.2902    1.0000 </r>
       <r>   -6.1910    1.0000 </r>
       <r>   -6.1859    1.0000 </r>
       <r>   -6.1832    1.0000 </r>
       <r>   -6.0979    1.0000 </r>
       <r>   -6.0968    1.0000 </r>
       <r>   -6.0967    1.0000 </r>
       <r>   -6.0458    1.0000 </r>
       <r>   -6.0446    1.0000 </r>
       <r>   -6.0446    1.0000 </r>
       <r>   -5.8644    1.0000 </r>
       <r>   -5.8573    1.0000 </r>
       <r>   -5.7012    1.0000 </r>
       <r>   -5.6976    1.0000 </r>
       <r>   -5.6176    1.0000 </r>
       <r>   -5.6168    1.0000 </r>
       <r>   -5.6149    1.0000 </r>
       <r>   -5.4796    1.0000 </r>
       <r>   -5.4794    1.0000 </r>
       <r>   -5.4792    1.0000 </r>
       <r>   -5.4524    1.0000 </r>
       <r>   -5.4495    1.0000 </r>
       <r>   -5.4482    1.0000 </r>
       <r>   -5.4443    1.0000 </r>
       <r>   -5.4429    1.0000 </r>
       <r>   -5.4428    1.0000 </r>
       <r>   -5.4262    1.0000 </r>
       <r>   -5.4237    1.0000 </r>
       <r>   -5.4192    1.0000 </r>
       <r>   -5.4189    1.0000 </r>
       <r>   -5.4183    1.0000 </r>
       <r>   -5.4180    1.0000 </r>
       <r>   -5.4106    1.0000 </r>
       <r>   -5.0732    1.0000 </r>
       <r>   -5.0414    1.0000 </r>
       <r>   -5.0405    1.0000 </r>
       <r>   -5.0395    1.0000 </r>
       <r>   -5.0065    1.0000 </r>
       <r>   -5.0047    1.0000 </r>
       <r>   -4.9918    1.0000 </r>
       <r>   -4.9904    1.0000 </r>
       <r>   -4.9900    1.0000 </r>
       <r>   -4.9615    1.0000 </r>
       <r>   -4.9604    1.0000 </r>
       <r>   -4.9587    1.0000 </r>
       <r>   -4.9175    1.0000 </r>
       <r>   -4.9173    1.0000 </r>
       <r>   -4.9172    1.0000 </r>
       <r>   -4.8697    1.0000 </r>
       <r>   -4.8683    1.0000 </r>
       <r>   -4.8681    1.0000 </r>
       <r>   -4.8305    1.0000 </r>
       <r>   -4.8299    1.0000 </r>
       <r>   -4.7009    1.0012 </r>
       <r>   -4.6885    1.0015 </r>
       <r>   -4.6881    1.0016 </r>
       <r>   -4.6852    1.0016 </r>
       <r>   -4.6714    1.0022 </r>
       <r>   -4.6446    1.0037 </r>
       <r>   -4.6437    1.0038 </r>
       <r>   -4.6416    1.0040 </r>
       <r>   -4.6405    1.0040 </r>
       <r>   -4.6403    1.0041 </r>
       <r>   -4.6401    1.0041 </r>
       <r>   -4.6353    1.0044 </r>
       <r>   -4.6339    1.0046 </r>
       <r>   -4.6163    1.0062 </r>
       <r>   -4.6139    1.0065 </r>
       <r>   -4.6134    1.0066 </r>
       <r>   -4.6117    1.0067 </r>
       <r>   -4.6072    1.0073 </r>
       <r>   -4.4876    1.0306 </r>
       <r>   -4.4871    1.0307 </r>
       <r>   -4.4866    1.0308 </r>
       <r>   -4.4409    1.0353 </r>
       <r>   -4.4406    1.0353 </r>
       <r>   -4.4405    1.0353 </r>
       <r>   -4.3810    1.0111 </r>
       <r>   -4.3751    1.0056 </r>
       <r>   -4.1755    0.3916 </r>
       <r>   -4.1728    0.3805 </r>
       <r>   -4.1713    0.3744 </r>
       <r>   -4.1568    0.3167 </r>
       <r>   -4.1550    0.3097 </r>
       <r>   -4.1546    0.3082 </r>
       <r>   -4.1534    0.3035 </r>
       <r>   -4.0895    0.0992 </r>
       <r>   -4.0883    0.0963 </r>
       <r>   -4.0842    0.0864 </r>
       <r>   -4.0513    0.0238 </r>
       <r>   -4.0494    0.0210 </r>
       <r>   -4.0460    0.0161 </r>
       <r>   -4.0215   -0.0113 </r>
       <r>   -3.7110   -0.0014 </r>
       <r>   -3.7080   -0.0013 </r>
       <r>   -3.7030   -0.0012 </r>
       <r>   -3.6545   -0.0004 </r>
       <r>   -3.6520   -0.0004 </r>
       <r>   -3.6507   -0.0003 </r>
       <r>   -2.6780    0.0000 </r>
       <r>   -2.5886    0.0000 </r>
       <r>   -2.5856    0.0000 </r>
       <r>   -2.5844    0.0000 </r>
       <r>   -2.3663    0.0000 </r>
       <r>   -2.3657    0.0000 </r>
       <r>   -2.3644    0.0000 </r>
       <r>   -2.2779    0.0000 </r>
       <r>   -2.2754    0.0000 </r>
       <r>   -2.2709    0.0000 </r>
       <r>   -2.1358    0.0000 </r>
       <r>   -2.1342    0.0000 </r>
       <r>   -1.6647    0.0000 </r>
       <r>   -0.9864    0.0000 </r>
       <r>   -0.9798    0.0000 </r>
       <r>   -0.9769    0.0000 </r>
       <r>   -0.9577    0.0000 </r>
       <r>   -0.9440    0.0000 </r>
       <r>   -0.4456    0.0000 </r>
       <r>   -0.4179    0.0000 </r>
       <r>   -0.3122    0.0000 </r>
      </set>
     </set>
    </set>
   </array>
  </eigenvalues>
  <separator name="orbital magnetization" >
   <v name="MAGDIPOLOUT">      0.00000000      0.00000000      0.00000000</v>
  </separator>
  <dos>
   <i name="efermi">     -4.20134333 </i>
   <total>
    <array>
     <dimension dim="1">gridpoints</dimension>
     <dimension dim="2">spin</dimension>
     <field>energy</field>
     <field>total</field>
     <field>integrated</field>
     <set>
      <set comment="spin 1">
       <r>   -14.5907     0.0000     0.0000 </r>
       <r>   -14.5364     0.0000     0.0000 </r>
       <r>   -14.4821     0.0000     0.0000 </r>
       <r>   -14.4279     0.0000     0.0000 </r>
       <r>   -14.3736     0.0000     0.0000 </r>
       <r>   -14.3194     0.0000     0.0000 </r>
       <r>   -14.2651     0.0000     0.0000 </r>
       <r>   -14.2108     0.0000     0.0000 </r>
       <r>   -14.1566     0.0000     0.0000 </r>
       <r>   -14.1023     0.0000     0.0000 </r>
       <r>   -14.0480     0.0000     0.0000 </r>
       <r>   -13.9938     0.0000     0.0000 </r>
       <r>   -13.9395     0.0000     0.0000 </r>
       <r>   -13.8853     0.0000     0.0000 </r>
       <r>   -13.8310     0.0000     0.0000 </r>
       <r>   -13.7767     0.0000     0.0000 </r>
       <r>   -13.7225     0.0000     0.0000 </r>
       <r>   -13.6682     0.0000     0.0000 </r>
       <r>   -13.6140     0.0000     0.0000 </r>
       <r>   -13.5597     0.0000     0.0000 </r>
       <r>   -13.5054     0.0000     0.0000 </r>
       <r>   -13.4512     0.0000     0.0000 </r>
       <r>   -13.3969     0.0000     0.0000 </r>
       <r>   -13.3426     0.0000     0.0000 </r>
       <r>   -13.2884    -0.0001     0.0000 </r>
       <r>   -13.2341    -0.0008    -0.0001 </r>
       <r>   -13.1799    -0.0037    -0.0003 </r>
       <r>   -13.1256    -0.0142    -0.0010 </r>
       <r>   -13.0713    -0.0461    -0.0035 </r>
       <r>   -13.0171    -0.1229    -0.0102 </r>
       <r>   -12.9628    -0.2620    -0.0244 </r>
       <r>   -12.9086    -0.4182    -0.0471 </r>
       <r>   -12.8543    -0.3952    -0.0686 </r>
       <r>   -12.8000     0.1824    -0.0587 </r>
       <r>   -12.7458     1.6887     0.0330 </r>
       <r>   -12.6915     4.0956     0.2552 </r>
       <r>   -12.6372     6.6754     0.6174 </r>
       <r>   -12.5830     8.2479     1.0650 </r>
       <r>   -12.5287     7.9691     1.4974 </r>
       <r>   -12.4745     5.9942     1.8226 </r>
       <r>   -12.4202     3.3516     2.0045 </r>
       <r>   -12.3659     1.1575     2.0673 </r>
       <r>   -12.3117    -0.0628     2.0639 </r>
       <r>   -12.2574    -0.4392     2.0401 </r>
       <r>   -12.2032    -0.3800     2.0195 </r>
       <r>   -12.1489    -0.2169     2.0077 </r>
       <r>   -12.0946    -0.0951     2.0025 </r>
       <r>   -12.0404    -0.0337     2.0007 </r>
       <r>   -11.9861    -0.0099     2.0002 </r>
       <r>   -11.9318    -0.0024     2.0000 </r>
       <r>   -11.8776    -0.0006     2.0000 </r>
       <r>   -11.8233    -0.0009     1.9999 </r>
       <r>   -11.7691    -0.0043     1.9997 </r>
       <r>   -11.7148    -0.0185     1.9987 </r>
       <r>   -11.6605    -0.0671     1.9951 </r>
       <r>   -11.6063    -0.2029     1.9841 </r>
       <r>   -11.5520    -0.5005     1.9569 </r>
       <r>   -11.4977    -0.9705     1.9042 </r>
       <r>   -11.4435    -1.3417     1.8314 </r>
       <r>   -11.3892    -0.8143     1.7872 </r>
       <r>   -11.3350     1.8412     1.8871 </r>
       <r>   -11.2807     7.4541     2.2916 </r>
       <r>   -11.2264    15.1997     3.1164 </r>
       <r>   -11.1722    22.1791     4.3199 </r>
       <r>   -11.1179    24.8897     5.6704 </r>
       <r>   -11.0637    21.7992     6.8533 </r>
       <r>   -11.0094    14.6914     7.6505 </r>
       <r>   -10.9551     7.4152     8.0528 </r>
       <r>   -10.9009     3.2122     8.2271 </r>
       <r>   -10.8466     2.9015     8.3846 </r>
       <r>   -10.7923     4.9699     8.6542 </r>
       <r>   -10.7381     6.9590     9.0318 </r>
       <r>   -10.6838     6.9975     9.4115 </r>
       <r>   -10.6296     4.6577     9.6643 </r>
       <r>   -10.5753     0.9524     9.7160 </r>
       <r>   -10.5210    -2.0625     9.6040 </r>
       <r>   -10.4668    -1.5756     9.5185 </r>
       <r>   -10.4125     5.4379     9.8136 </r>
       <r>   -10.3583    20.5166    10.9269 </r>
       <r>   -10.3040    41.2410    13.1647 </r>
       <r>   -10.2497    60.4779    16.4463 </r>
       <r>   -10.1955    69.5459    20.2200 </r>
       <r>   -10.1412    63.8613    23.6852 </r>
       <r>   -10.0869    46.4563    26.2060 </r>
       <r>   -10.0327    26.2275    27.6292 </r>
       <r>    -9.9784    12.4315    28.3037 </r>
       <r>    -9.9242     9.6270    28.8261 </r>
       <r>    -9.8699    15.9691    29.6926 </r>
       <r>    -9.8156    25.1655    31.0581 </r>
       <r>    -9.7614    30.7035    32.7242 </r>
       <r>    -9.7071    29.8069    34.3415 </r>
       <r>    -9.6529    24.3275    35.6616 </r>
       <r>    -9.5986    18.0218    36.6395 </r>
       <r>    -9.5443    13.2629    37.3592 </r>
       <r>    -9.4901    10.8337    37.9470 </r>
       <r>    -9.4358    12.5416    38.6275 </r>
       <r>    -9.3815    22.4440    39.8454 </r>
       <r>    -9.3273    43.6392    42.2133 </r>
       <r>    -9.2730    73.0686    46.1782 </r>
       <r>    -9.2188   100.4204    51.6271 </r>
       <r>    -9.1645   114.1442    57.8208 </r>
       <r>    -9.1102   110.0677    63.7933 </r>
       <r>    -9.0560    94.2883    68.9095 </r>
       <r>    -9.0017    77.2232    73.0998 </r>
       <r>    -8.9474    64.8849    76.6205 </r>
       <r>    -8.8932    55.9273    79.6552 </r>
       <r>    -8.8389    46.0843    82.1559 </r>
       <r>    -8.7847    34.1301    84.0078 </r>
       <r>    -8.7304    23.5986    85.2883 </r>
       <r>    -8.6761    19.7922    86.3623 </r>
       <r>    -8.6219    25.2480    87.7323 </r>
       <r>    -8.5676    36.9660    89.7381 </r>
       <r>    -8.5134    47.4428    92.3124 </r>
       <r>    -8.4591    49.4769    94.9971 </r>
       <r>    -8.4048    41.7101    97.2604 </r>
       <r>    -8.3506    30.3219    98.9057 </r>
       <r>    -8.2963    24.8770   100.2556 </r>
       <r>    -8.2420    31.3848   101.9586 </r>
       <r>    -8.1878    48.1827   104.5730 </r>
       <r>    -8.1335    67.6713   108.2450 </r>
       <r>    -8.0793    81.9033   112.6892 </r>
       <r>    -8.0250    87.4088   117.4322 </r>
       <r>    -7.9707    86.2172   122.1105 </r>
       <r>    -7.9165    83.2847   126.6296 </r>
       <r>    -7.8622    82.5016   131.1063 </r>
       <r>    -7.8080    83.8689   135.6572 </r>
       <r>    -7.7537    83.7807   140.2033 </r>
       <r>    -7.6994    78.1784   144.4454 </r>
       <r>    -7.6452    65.7715   148.0142 </r>
       <r>    -7.5909    48.6581   150.6545 </r>
       <r>    -7.5366    30.7929   152.3254 </r>
       <r>    -7.4824    16.6658   153.2297 </r>
       <r>    -7.4281    10.8178   153.8167 </r>
       <r>    -7.3739    16.5667   154.7156 </r>
       <r>    -7.3196    33.3001   156.5225 </r>
       <r>    -7.2653    54.6902   159.4901 </r>
       <r>    -7.2111    70.8847   163.3365 </r>
       <r>    -7.1568    74.3721   167.3720 </r>
       <r>    -7.1026    64.9716   170.8975 </r>
       <r>    -7.0483    49.3355   173.5745 </r>
       <r>    -6.9940    35.4209   175.4965 </r>
       <r>    -6.9398    27.3004   176.9779 </r>
       <r>    -6.8855    24.7134   178.3189 </r>
       <r>    -6.8312    26.2508   179.7433 </r>
       <r>    -6.7770    31.7836   181.4679 </r>
       <r>    -6.7227    41.8992   183.7414 </r>
       <r>    -6.6685    55.8897   186.7741 </r>
       <r>    -6.6142    70.8201   190.6169 </r>
       <r>    -6.5599    82.5864   195.0982 </r>
       <r>    -6.5057    88.0431   199.8756 </r>
       <r>    -6.4514    86.5035   204.5694 </r>
       <r>    -6.3971    79.6739   208.8926 </r>
       <r>    -6.3429    70.6681   212.7272 </r>
       <r>    -6.2886    63.0681   216.1494 </r>
       <r>    -6.2344    59.7609   219.3921 </r>
       <r>    -6.1801    61.1382   222.7096 </r>
       <r>    -6.1258    64.0633   226.1858 </r>
       <r>    -6.0716    63.5811   229.6358 </r>
       <r>    -6.0173    56.6984   232.7123 </r>
       <r>    -5.9631    44.8184   235.1443 </r>
       <r>    -5.9088    32.5026   236.9079 </r>
       <r>    -5.8545    24.0505   238.2129 </r>
       <r>    -5.8003    21.2828   239.3678 </r>
       <r>    -5.7460    24.0840   240.6746 </r>
       <r>    -5.6917    32.5065   242.4385 </r>
       <r>    -5.6375    48.0766   245.0472 </r>
       <r>    -5.5832    72.2792   248.9692 </r>
       <r>    -5.5290   102.2683   254.5184 </r>
       <r>    -5.4747   127.8243   261.4544 </r>
       <r>    -5.4204   135.0571   268.7828 </r>
       <r>    -5.3662   116.4358   275.1008 </r>
       <r>    -5.3119    78.4772   279.3592 </r>
       <r>    -5.2577    39.1308   281.4825 </r>
       <r>    -5.2034    16.9683   282.4032 </r>
       <r>    -5.1491    21.2117   283.5542 </r>
       <r>    -5.0949    48.4389   286.1825 </r>
       <r>    -5.0406    85.4722   290.8204 </r>
       <r>    -4.9863   116.0105   297.1153 </r>
       <r>    -4.9321   128.9314   304.1114 </r>
       <r>    -4.8778   124.7094   310.8783 </r>
       <r>    -4.8236   115.0695   317.1222 </r>
       <r>    -4.7693   114.2501   323.3216 </r>
       <r>    -4.7150   127.4261   330.2360 </r>
       <r>    -4.6608   146.1480   338.1662 </r>
       <r>    -4.6065   155.5552   346.6069 </r>
       <r>    -4.5522   146.6836   354.5662 </r>
       <r>    -4.4980   122.1449   361.1940 </r>
       <r>    -4.4437    91.6529   366.1672 </r>
       <r>    -4.3895    64.8267   369.6848 </r>
       <r>    -4.3352    48.4648   372.3146 </r>
       <r>    -4.2809    46.7840   374.8532 </r>
       <r>    -4.2267    59.8120   378.0987 </r>
       <r>    -4.1724    80.6960   382.4774 </r>
       <r>    -4.1182    97.0767   387.7449 </r>
       <r>    -4.0639    97.9505   393.0599 </r>
       <r>    -4.0096    80.9008   397.4497 </r>
       <r>    -3.9554    53.6292   400.3597 </r>
       <r>    -3.9011    28.8624   401.9259 </r>
       <r>    -3.8468    16.7706   402.8359 </r>
       <r>    -3.7926    19.7402   403.9070 </r>
       <r>    -3.7383    31.9142   405.6387 </r>
       <r>    -3.6841    43.2382   407.9849 </r>
       <r>    -3.6298    45.6352   410.4611 </r>
       <r>    -3.5755    37.4851   412.4951 </r>
       <r>    -3.5213    23.4104   413.7654 </r>
       <r>    -3.4670    10.0091   414.3085 </r>
       <r>    -3.4128     1.4167   414.3854 </r>
       <r>    -3.3585    -2.0539   414.2740 </r>
       <r>    -3.3042    -2.3513   414.1464 </r>
       <r>    -3.2500    -1.5417   414.0627 </r>
       <r>    -3.1957    -0.7750   414.0207 </r>
       <r>    -3.1414    -0.3821   413.9999 </r>
       <r>    -3.0872    -0.3455   413.9812 </r>
       <r>    -3.0329    -0.6035   413.9484 </r>
       <r>    -2.9787    -1.0666   413.8906 </r>
       <r>    -2.9244    -1.4179   413.8136 </r>
       <r>    -2.8701    -0.8814   413.7658 </r>
       <r>    -2.8159     1.7133   413.8588 </r>
       <r>    -2.7616     7.2570   414.2525 </r>
       <r>    -2.7074    15.2884   415.0821 </r>
       <r>    -2.6531    23.5445   416.3597 </r>
       <r>    -2.5988    29.1846   417.9433 </r>
       <r>    -2.5446    31.1972   419.6361 </r>
       <r>    -2.4903    31.6506   421.3535 </r>
       <r>    -2.4360    33.9482   423.1956 </r>
       <r>    -2.3818    39.4080   425.3339 </r>
       <r>    -2.3275    45.6985   427.8136 </r>
       <r>    -2.2733    48.7934   430.4612 </r>
       <r>    -2.2190    46.2542   432.9711 </r>
       <r>    -2.1647    38.6104   435.0661 </r>
       <r>    -2.1105    28.2440   436.5987 </r>
       <r>    -2.0562    17.6716   437.5576 </r>
       <r>    -2.0019     8.7376   438.0317 </r>
       <r>    -1.9477     2.5662   438.1710 </r>
       <r>    -1.8934    -0.3894   438.1498 </r>
       <r>    -1.8392    -0.3411   438.1313 </r>
       <r>    -1.7849     1.8963   438.2342 </r>
       <r>    -1.7306     5.0164   438.5064 </r>
       <r>    -1.6764     7.4895   438.9128 </r>
       <r>    -1.6221     8.1422   439.3546 </r>
       <r>    -1.5679     6.7770   439.7224 </r>
       <r>    -1.5136     4.2208   439.9514 </r>
       <r>    -1.4593     1.6400   440.0404 </r>
       <r>    -1.4051    -0.2787   440.0253 </r>
       <r>    -1.3508    -1.5525   439.9410 </r>
       <r>    -1.2965    -2.3809   439.8118 </r>
       <r>    -1.2423    -2.3172   439.6861 </r>
       <r>    -1.1880     0.1498   439.6942 </r>
       <r>    -1.1338     6.8827   440.0677 </r>
       <r>    -1.0795    18.1880   441.0546 </r>
       <r>    -1.0252    31.0986   442.7420 </r>
       <r>    -0.9710    40.0389   444.9146 </r>
       <r>    -0.9167    40.3230   447.1026 </r>
       <r>    -0.8625    31.7165   448.8236 </r>
       <r>    -0.8082    18.6129   449.8336 </r>
       <r>    -0.7539     6.7191   450.1982 </r>
       <r>    -0.6997    -0.3914   450.1769 </r>
       <r>    -0.6454    -2.0752   450.0643 </r>
       <r>    -0.5911     0.6951   450.1020 </r>
       <r>    -0.5369     6.4963   450.4545 </r>
       <r>    -0.4826    13.5086   451.1875 </r>
       <r>    -0.4284    19.3841   452.2394 </r>
       <r>    -0.3741    21.9324   453.4294 </r>
       <r>    -0.3198    20.2824   454.5300 </r>
       <r>    -0.2656    15.3828   455.3647 </r>
       <r>    -0.2113     9.3351   455.8712 </r>
       <r>    -0.1571     4.1498   456.0964 </r>
       <r>    -0.1028     0.8569   456.1429 </r>
       <r>    -0.0485    -0.5938   456.1107 </r>
       <r>     0.0057    -0.8565   456.0642 </r>
       <r>     0.0600    -0.6271   456.0302 </r>
       <r>     0.1143    -0.3382   456.0118 </r>
       <r>     0.1685    -0.1459   456.0039 </r>
       <r>     0.2228    -0.0519   456.0011 </r>
       <r>     0.2770    -0.0155   456.0003 </r>
       <r>     0.3313    -0.0039   456.0001 </r>
       <r>     0.3856    -0.0008   456.0000 </r>
       <r>     0.4398    -0.0002   456.0000 </r>
       <r>     0.4941     0.0000   456.0000 </r>
       <r>     0.5484     0.0000   456.0000 </r>
       <r>     0.6026     0.0000   456.0000 </r>
       <r>     0.6569     0.0000   456.0000 </r>
       <r>     0.7111     0.0000   456.0000 </r>
       <r>     0.7654     0.0000   456.0000 </r>
       <r>     0.8197     0.0000   456.0000 </r>
       <r>     0.8739     0.0000   456.0000 </r>
       <r>     0.9282     0.0000   456.0000 </r>
       <r>     0.9824     0.0000   456.0000 </r>
       <r>     1.0367     0.0000   456.0000 </r>
       <r>     1.0910     0.0000   456.0000 </r>
       <r>     1.1452     0.0000   456.0000 </r>
       <r>     1.1995     0.0000   456.0000 </r>
       <r>     1.2538     0.0000   456.0000 </r>
       <r>     1.3080     0.0000   456.0000 </r>
       <r>     1.3623     0.0000   456.0000 </r>
       <r>     1.4165     0.0000   456.0000 </r>
       <r>     1.4708     0.0000   456.0000 </r>
       <r>     1.5251     0.0000   456.0000 </r>
       <r>     1.5793     0.0000   456.0000 </r>
       <r>     1.6336     0.0000   456.0000 </r>
       <r>     1.6878     0.0000   456.0000 </r>
      </set>
     </set>
    </array>
   </total>
  </dos>
 </calculation>
 <structure name="finalpos" >
  <crystal>
   <varray name="basis" >
    <v>      18.00000000       0.00000000       0.00000000 </v>
    <v>       0.00000000      18.00000000       0.00000000 </v>
    <v>       0.00000000       0.00000000      18.00000000 </v>
   </varray>
   <i name="volume">   5832.00000000 </i>
   <varray name="rec_basis" >
    <v>       0.05555556       0.00000000       0.00000000 </v>
    <v>       0.00000000       0.05555556       0.00000000 </v>
    <v>       0.00000000       0.00000000       0.05555556 </v>
   </varray>
  </crystal>
  <varray name="positions" >
   <v>       0.72319687       0.57315850       0.49978196 </v>
   <v>       0.57315662       0.72319760       0.49978226 </v>
   <v>       0.27692894       0.57337942       0.49982427 </v>
   <v>       0.42638282       0.72297585       0.50005283 </v>
   <v>       0.27675138       0.42662484       0.49932894 </v>
   <v>       0.42662452       0.27675356       0.49932896 </v>
   <v>       0.72297652       0.42638315       0.50005346 </v>
   <v>       0.57337410       0.27692808       0.49982458 </v>
   <v>       0.66636368       0.50006710       0.61778191 </v>
   <v>       0.33336211       0.49956823       0.61757218 </v>
   <v>       0.50006939       0.66636230       0.61778096 </v>
   <v>       0.49956956       0.33336312       0.61756957 </v>
   <v>       0.64849136       0.64849151       0.60569356 </v>
   <v>       0.35187368       0.64779922       0.60619294 </v>
   <v>       0.35119600       0.35119586       0.60536591 </v>
   <v>       0.64779693       0.35187372       0.60619507 </v>
   <v>       0.66636886       0.49985448       0.38213347 </v>
   <v>       0.33367987       0.50016977       0.38182197 </v>
   <v>       0.49985688       0.66636792       0.38213355 </v>
   <v>       0.50017122       0.33368028       0.38182504 </v>
   <v>       0.64815238       0.64815258       0.39387519 </v>
   <v>       0.35156504       0.64843663       0.39360076 </v>
   <v>       0.35186718       0.35186687       0.39330959 </v>
   <v>       0.64843387       0.35156477       0.39360008 </v>
   <v>       0.57523345       0.57523410       0.70983860 </v>
   <v>       0.42529724       0.57426946       0.70986079 </v>
   <v>       0.42431812       0.42431840       0.70974456 </v>
   <v>       0.57426668       0.42529829       0.70986056 </v>
   <v>       0.57487065       0.57487052       0.28996627 </v>
   <v>       0.42505796       0.57515620       0.28969544 </v>
   <v>       0.42534613       0.42534543       0.28966188 </v>
   <v>       0.57515467       0.42505784       0.28969750 </v>
   <v>       0.49984194       0.49984031       0.60478415 </v>
   <v>       0.42587319       0.42587145       0.49976273 </v>
   <v>       0.42593640       0.57392683       0.49986028 </v>
   <v>       0.50001237       0.50000997       0.39498710 </v>
   <v>       0.57398405       0.57398216       0.49999524 </v>
   <v>       0.57392784       0.42593411       0.49986039 </v>
  </varray>
  <varray name="selective"  type="logical" >
   <v type="logical" >  T  T  T </v>
   <v type="logical" >  T  T  T </v>
   <v type="logical" >  T  T  T </v>
   <v type="logical" >  T  T  T </v>
   <v type="logical" >  T  T  T </v>
   <v type="logical" >  T  T  T </v>
   <v type="logical" >  T  T  T </v>
   <v type="logical" >  T  T  T </v>
   <v type="logical" >  T  T  T </v>
   <v type="logical" >  T  T  T </v>
   <v type="logical" >  T  T  T </v>
   <v type="logical" >  T  T  T </v>
   <v type="logical" >  T  T  T </v>
   <v type="logical" >  T  T  T </v>
   <v type="logical" >  T  T  T </v>
   <v type="logical" >  T  T  T </v>
   <v type="logical" >  T  T  T </v>
   <v type="logical" >  T  T  T </v>
   <v type="logical" >  T  T  T </v>
   <v type="logical" >  T  T  T </v>
   <v type="logical" >  T  T  T </v>
   <v type="logical" >  T  T  T </v>
   <v type="logical" >  T  T  T </v>
   <v type="logical" >  T  T  T </v>
   <v type="logical" >  T  T  T </v>
   <v type="logical" >  T  T  T </v>
   <v type="logical" >  T  T  T </v>
   <v type="logical" >  T  T  T </v>
   <v type="logical" >  T  T  T </v>
   <v type="logical" >  T  T  T </v>
   <v type="logical" >  T  T  T </v>
   <v type="logical" >  T  T  T </v>
   <v type="logical" >  T  T  T </v>
   <v type="logical" >  T  T  T </v>
   <v type="logical" >  T  T  T </v>
   <v type="logical" >  T  T  T </v>
   <v type="logical" >  T  T  T </v>
   <v type="logical" >  T  T  T </v>
  </varray>
  <nose>
   <v>      -3.00000000       0.00000000       0.00010000       0.00010000 </v>
  </nose>
 </structure>
</modeling>
