Pt cube particle                        
           1
    18.000000    0.000000    0.000000
     0.000000   18.000000    0.000000
     0.000000    0.000000   18.000000
   Pt
  38
Direct configuration=     1
   0.72319657  0.57315667  0.49977953
   0.57315473  0.72319744  0.49977983
   0.27693045  0.57337903  0.49982336
   0.42638316  0.72297395  0.50005220
   0.27675145  0.42662606  0.49932761
   0.42662619  0.27675410  0.49932764
   0.72297448  0.42638359  0.50005288
   0.57337307  0.27692999  0.49982366
   0.66636745  0.50006756  0.61778606
   0.33335873  0.49956684  0.61757745
   0.50007026  0.66636614  0.61778518
   0.49956855  0.33335984  0.61757443
   0.64849144  0.64849166  0.60568932
   0.35187684  0.64779539  0.60619109
   0.35119617  0.35119592  0.60536243
   0.64779271  0.35187722  0.60619325
   0.66636796  0.49985397  0.38213169
   0.33368010  0.50017014  0.38181969
   0.49985674  0.66636695  0.38213169
   0.50017190  0.33368061  0.38182332
   0.64815061  0.64815097  0.39387187
   0.35156645  0.64843556  0.39359718
   0.35186858  0.35186824  0.39330721
   0.64843247  0.35156638  0.39359645
   0.57523730  0.57523785  0.70984185
   0.42529751  0.57426953  0.70986487
   0.42431457  0.42431480  0.70974921
   0.57426666  0.42529859  0.70986427
   0.57486907  0.57486908  0.28996599
   0.42505975  0.57515471  0.28969408
   0.42534762  0.42534694  0.28966091
   0.57515315  0.42505962  0.28969631
   0.49984216  0.49984017  0.60478399
   0.42587606  0.42587374  0.49976494
   0.42593947  0.57392446  0.49986202
   0.50001298  0.50001024  0.39499180
   0.57398177  0.57397963  0.49999705
   0.57392538  0.42593686  0.49986217
Direct configuration=     2
   0.72319687  0.57315850  0.49978196
   0.57315662  0.72319760  0.49978226
   0.27692894  0.57337942  0.49982427
   0.42638282  0.72297585  0.50005283
   0.27675138  0.42662484  0.49932894
   0.42662452  0.27675356  0.49932896
   0.72297652  0.42638315  0.50005346
   0.57337410  0.27692808  0.49982458
   0.66636368  0.50006710  0.61778191
   0.33336211  0.49956823  0.61757218
   0.50006939  0.66636230  0.61778096
   0.49956956  0.33336312  0.61756957
   0.64849136  0.64849151  0.60569356
   0.35187368  0.64779922  0.60619294
   0.35119600  0.35119586  0.60536591
   0.64779693  0.35187372  0.60619507
   0.66636886  0.49985448  0.38213347
   0.33367987  0.50016977  0.38182197
   0.49985688  0.66636792  0.38213355
   0.50017122  0.33368028  0.38182504
   0.64815238  0.64815258  0.39387519
   0.35156504  0.64843663  0.39360076
   0.35186718  0.35186687  0.39330959
   0.64843387  0.35156477  0.39360008
   0.57523345  0.57523410  0.70983860
   0.42529724  0.57426946  0.70986079
   0.42431812  0.42431840  0.70974456
   0.57426668  0.42529829  0.70986056
   0.57487065  0.57487052  0.28996627
   0.42505796  0.57515620  0.28969544
   0.42534613  0.42534543  0.28966188
   0.57515467  0.42505784  0.28969750
   0.49984194  0.49984031  0.60478415
   0.42587319  0.42587145  0.49976273
   0.42593640  0.57392683  0.49986028
   0.50001237  0.50000997  0.39498710
   0.57398405  0.57398216  0.49999524
   0.57392784  0.42593411  0.49986039
