unknown system                          
   1.00000000000000     
     4.100000    0.000000    0.000000
     0.000000    4.100000    0.000000
     0.000000    0.000000    4.100000
   Sr   Fe   O 
     1     1     3
Direct
  0.500000  0.500000  0.500000
  0.000000  0.000000  0.000000
  0.500000  0.000000  0.000000
  0.000000  0.500000  0.000000
  0.000000  0.000000  0.500000
 
   36   36   36
  1411.6      1343.1      1152.4      881.21      588.28      333.11      156.36      66.147      38.645      36.013    
  42.557      58.704      91.175      149.30      235.91      342.13      447.28      525.15      553.92      525.15    
  447.28      342.13      235.91      149.30      91.175      58.704      42.557      36.013      38.645      66.147    
  156.36      333.11      588.28      881.21      1152.4      1343.1      1343.1      1276.9      1093.1      832.64    
  552.88      310.99      145.19      61.959      37.284      34.892      41.210      56.636      87.278      142.21    
  224.46      325.76      426.40      501.09      528.73      501.09      426.40      325.76      224.46      142.21    
  87.278      56.636      41.210      34.892      37.284      61.959      145.19      310.99      552.88      832.64    
  1093.1      1276.9      1152.4      1093.1      929.27      699.71      457.18      252.21      116.23      51.447    
  33.710      31.799      37.484      51.021      76.797      123.03      193.15      280.62      368.38      433.97    
  458.31      433.97      368.38      280.62      193.15      123.03      76.797      51.021      37.484      31.799    
  33.710      51.447      116.23      252.21      457.18      699.71      929.27      1093.1      881.21      832.64    
  699.71      516.80      328.80      176.09      80.632      39.336      28.841      27.434      32.199      43.256    
  62.784      97.198      150.22      217.67      286.43      338.36      357.74      338.36      286.43      217.67    
  150.22      97.198      62.784      43.256      32.199      27.434      28.841      39.336      80.632      176.09    
  328.80      516.80      699.71      832.64      588.28      552.88      457.18      328.80      202.08      105.28    
  50.319      29.660      23.541      22.655      26.367      34.752      48.606      71.280      106.33      151.88    
  199.24      235.52      249.16      235.52      199.24      151.88      106.33      71.280      48.606      34.752    
  26.367      22.655      23.541      29.660      50.319      105.28      202.08      328.80      457.18      552.88    
  333.11      310.99      252.21      176.09      105.28      56.041      31.758      22.751      18.683      18.198    
  20.867      26.730      36.242      50.111      70.352      96.807      124.83      146.62      154.88      146.62    
  124.83      96.807      70.352      50.111      36.242      26.730      20.867      18.198      18.683      22.751    
  31.758      56.041      105.28      176.09      252.21      310.99      156.36      145.19      116.23      80.632    
  50.319      31.758      22.768      17.438      14.816      14.515      16.241      20.016      26.102      34.717    
  45.757      59.208      73.324      84.372      88.582      84.372      73.324      59.208      45.757      34.717    
  26.102      20.016      16.241      14.515      14.816      17.438      22.768      31.758      50.319      80.632    
  116.23      145.19      66.147      61.959      51.447      39.336      29.660      22.751      17.438      13.928    
  12.120      11.762      12.683      14.887      18.493      23.579      29.964      36.997      43.644      48.616    
  50.484      48.616      43.644      36.997      29.964      23.579      18.493      14.887      12.683      11.762    
  12.120      13.928      17.438      22.751      29.660      39.336      51.447      61.959      38.645      37.284    
  33.710      28.841      23.541      18.683      14.816      12.120      10.531      9.9066      10.148      11.235    
  13.189      15.997      19.507      23.337      26.872      29.393      30.309      29.393      26.872      23.337    
  19.507      15.997      13.189      11.235      10.148      9.9066      10.531      12.120      14.816      18.683    
  23.541      28.841      33.710      37.284      36.013      34.892      31.799      27.434      22.655      18.198    
  14.515      11.762      9.9066      8.8469      8.4915      8.7821      9.6747      11.101      12.925      14.911    
  16.729      18.016      18.482      18.016      16.729      14.911      12.925      11.101      9.6747      8.7821    
  8.4915      8.8469      9.9066      11.762      14.515      18.198      22.655      27.434      31.799      34.892    
  42.557      41.210      37.484      32.199      26.367      20.867      16.241      12.683      10.148      8.4915    
  7.5646      7.2463      7.4349      8.0272      8.8974      9.8844      10.797      11.443      11.677      11.443    
  10.797      9.8844      8.8974      8.0272      7.4349      7.2463      7.5646      8.4915      10.148      12.683    
  16.241      20.867      26.367      32.199      37.484      41.210      58.704      56.636      51.021      43.256    
  34.752      26.730      20.016      14.887      11.235      8.7821      7.2463      6.4005      6.0722      6.1245    
  6.4351      6.8781      7.3215      7.6443      7.7620      7.6443      7.3215      6.8781      6.4351      6.1245    
  6.0722      6.4005      7.2463      8.7821      11.235      14.887      20.016      26.730      34.752      43.256    
  51.021      56.636      91.175      87.278      76.797      62.784      48.606      36.242      26.102      18.493    
  13.189      9.6747      7.4349      6.0722      5.3085      4.9591      4.8964      5.0096      5.1872      5.3332    
  5.3881      5.3332      5.1872      5.0096      4.8964      4.9591      5.3085      6.0722      7.4349      9.6747    
  13.189      18.493      26.102      36.242      48.606      62.784      76.797      87.278      149.30      142.21    
  123.03      97.198      71.280      50.111      34.717      23.579      15.997      11.101      8.0272      6.1245    
  4.9591      4.2730      3.9224      3.8017      3.8029      3.8345      3.8489      3.8345      3.8029      3.8017    
  3.9224      4.2730      4.9591      6.1245      8.0272      11.101      15.997      23.579      34.717      50.111    
  71.280      97.198      123.03      142.21      235.91      224.46      193.15      150.22      106.33      70.352    
  45.757      29.964      19.507      12.925      8.8974      6.4351      4.8964      3.9224      3.3425      3.0497    
  2.9296      2.8842      2.8711      2.8842      2.9296      3.0497      3.3425      3.9224      4.8964      6.4351    
  8.8974      12.925      19.507      29.964      45.757      70.352      106.33      150.22      193.15      224.46    
  342.13      325.76      280.62      217.67      151.88      96.807      59.208      36.997      23.337      14.911    
  9.8844      6.8781      5.0096      3.8017      3.0497      2.6412      2.4483      2.3588      2.3298      2.3588    
  2.4483      2.6412      3.0497      3.8017      5.0096      6.8781      9.8844      14.911      23.337      36.997    
  59.208      96.807      151.88      217.67      280.62      325.76      447.28      426.40      368.38      286.43    
  199.24      124.83      73.324      43.644      26.872      16.729      10.797      7.3215      5.1872      3.8029    
  2.9296      2.4483      2.2165      2.1056      2.0687      2.1056      2.2165      2.4483      2.9296      3.8029    
  5.1872      7.3215      10.797      16.729      26.872      43.644      73.324      124.83      199.24      286.43    
  368.38      426.40      525.15      501.09      433.97      338.36      235.52      146.62      84.372      48.616    
  29.393      18.016      11.443      7.6443      5.3332      3.8345      2.8842      2.3588      2.1056      1.9835    
  1.9425      1.9835      2.1056      2.3588      2.8842      3.8345      5.3332      7.6443      11.443      18.016    
  29.393      48.616      84.372      146.62      235.52      338.36      433.97      501.09      553.92      528.73    
  458.31      357.74      249.16      154.88      88.582      50.484      30.309      18.482      11.677      7.7620    
  5.3881      3.8489      2.8711      2.3298      2.0687      1.9425      1.9001      1.9425      2.0687      2.3298    
  2.8711      3.8489      5.3881      7.7620      11.677      18.482      30.309      50.484      88.582      154.88    
  249.16      357.74      458.31      528.73      525.15      501.09      433.97      338.36      235.52      146.62    
  84.372      48.616      29.393      18.016      11.443      7.6443      5.3332      3.8345      2.8842      2.3588    
  2.1056      1.9835      1.9425      1.9835      2.1056      2.3588      2.8842      3.8345      5.3332      7.6443    
  11.443      18.016      29.393      48.616      84.372      146.62      235.52      338.36      433.97      501.09    
  447.28      426.40      368.38      286.43      199.24      124.83      73.324      43.644      26.872      16.729    
  10.797      7.3215      5.1872      3.8029      2.9296      2.4483      2.2165      2.1056      2.0687      2.1056    
  2.2165      2.4483      2.9296      3.8029      5.1872      7.3215      10.797      16.729      26.872      43.644    
  73.324      124.83      199.24      286.43      368.38      426.40      342.13      325.76      280.62      217.67    
  151.88      96.807      59.208      36.997      23.337      14.911      9.8844      6.8781      5.0096      3.8017    
  3.0497      2.6412      2.4483      2.3588      2.3298      2.3588      2.4483      2.6412      3.0497      3.8017    
  5.0096      6.8781      9.8844      14.911      23.337      36.997      59.208      96.807      151.88      217.67    
  280.62      325.76      235.91      224.46      193.15      150.22      106.33      70.352      45.757      29.964    
  19.507      12.925      8.8974      6.4351      4.8964      3.9224      3.3425      3.0497      2.9296      2.8842    
  2.8711      2.8842      2.9296      3.0497      3.3425      3.9224      4.8964      6.4351      8.8974      12.925    
  19.507      29.964      45.757      70.352      106.33      150.22      193.15      224.46      149.30      142.21    
  123.03      97.198      71.280      50.111      34.717      23.579      15.997      11.101      8.0272      6.1245    
  4.9591      4.2730      3.9224      3.8017      3.8029      3.8345      3.8489      3.8345      3.8029      3.8017    
  3.9224      4.2730      4.9591      6.1245      8.0272      11.101      15.997      23.579      34.717      50.111    
  71.280      97.198      123.03      142.21      91.175      87.278      76.797      62.784      48.606      36.242    
  26.102      18.493      13.189      9.6747      7.4349      6.0722      5.3085      4.9591      4.8964      5.0096    
  5.1872      5.3332      5.3881      5.3332      5.1872      5.0096      4.8964      4.9591      5.3085      6.0722    
  7.4349      9.6747      13.189      18.493      26.102      36.242      48.606      62.784      76.797      87.278    
  58.704      56.636      51.021      43.256      34.752      26.730      20.016      14.887      11.235      8.7821    
  7.2463      6.4005      6.0722      6.1245      6.4351      6.8781      7.3215      7.6443      7.7620      7.6443    
  7.3215      6.8781      6.4351      6.1245      6.0722      6.4005      7.2463      8.7821      11.235      14.887    
  20.016      26.730      34.752      43.256      51.021      56.636      42.557      41.210      37.484      32.199    
  26.367      20.867      16.241      12.683      10.148      8.4915      7.5646      7.2463      7.4349      8.0272    
  8.8974      9.8844      10.797      11.443      11.677      11.443      10.797      9.8844      8.8974      8.0272    
  7.4349      7.2463      7.5646      8.4915      10.148      12.683      16.241      20.867      26.367      32.199    
  37.484      41.210      36.013      34.892      31.799      27.434      22.655      18.198      14.515      11.762    
  9.9066      8.8469      8.4915      8.7821      9.6747      11.101      12.925      14.911      16.729      18.016    
  18.482      18.016      16.729      14.911      12.925      11.101      9.6747      8.7821      8.4915      8.8469    
  9.9066      11.762      14.515      18.198      22.655      27.434      31.799      34.892      38.645      37.284    
  33.710      28.841      23.541      18.683      14.816      12.120      10.531      9.9066      10.148      11.235    
  13.189      15.997      19.507      23.337      26.872      29.393      30.309      29.393      26.872      23.337    
  19.507      15.997      13.189      11.235      10.148      9.9066      10.531      12.120      14.816      18.683    
  23.541      28.841      33.710      37.284      66.147      61.959      51.447      39.336      29.660      22.751    
  17.438      13.928      12.120      11.762      12.683      14.887      18.493      23.579      29.964      36.997    
  43.644      48.616      50.484      48.616      43.644      36.997      29.964      23.579      18.493      14.887    
  12.683      11.762      12.120      13.928      17.438      22.751      29.660      39.336      51.447      61.959    
  156.36      145.19      116.23      80.632      50.319      31.758      22.768      17.438      14.816      14.515    
  16.241      20.016      26.102      34.717      45.757      59.208      73.324      84.372      88.582      84.372    
  73.324      59.208      45.757      34.717      26.102      20.016      16.241      14.515      14.816      17.438    
  22.768      31.758      50.319      80.632      116.23      145.19      333.11      310.99      252.21      176.09    
  105.28      56.041      31.758      22.751      18.683      18.198      20.867      26.730      36.242      50.111    
  70.352      96.807      124.83      146.62      154.88      146.62      124.83      96.807      70.352      50.111    
  36.242      26.730      20.867      18.198      18.683      22.751      31.758      56.041      105.28      176.09    
  252.21      310.99      588.28      552.88      457.18      328.80      202.08      105.28      50.319      29.660    
  23.541      22.655      26.367      34.752      48.606      71.280      106.33      151.88      199.24      235.52    
  249.16      235.52      199.24      151.88      106.33      71.280      48.606      34.752      26.367      22.655    
  23.541      29.660      50.319      105.28      202.08      328.80      457.18      552.88      881.21      832.64    
  699.71      516.80      328.80      176.09      80.632      39.336      28.841      27.434      32.199      43.256    
  62.784      97.198      150.22      217.67      286.43      338.36      357.74      338.36      286.43      217.67    
  150.22      97.198      62.784      43.256      32.199      27.434      28.841      39.336      80.632      176.09    
  328.80      516.80      699.71      832.64      1152.4      1093.1      929.27      699.71      457.18      252.21    
  116.23      51.447      33.710      31.799      37.484      51.021      76.797      123.03      193.15      280.62    
  368.38      433.97      458.31      433.97      368.38      280.62      193.15      123.03      76.797      51.021    
  37.484      31.799      33.710      51.447      116.23      252.21      457.18      699.71      929.27      1093.1    
  1343.1      1276.9      1093.1      832.64      552.88      310.99      145.19      61.959      37.284      34.892    
  41.210      56.636      87.278      142.21      224.46      325.76      426.40      501.09      528.73      501.09    
  426.40      325.76      224.46      142.21      87.278      56.636      41.210      34.892      37.284      61.959    
  145.19      310.99      552.88      832.64      1093.1      1276.9      1343.1      1276.9      1093.1      832.64    
  552.88      310.99      145.19      61.959      37.284      34.892      41.210      56.636      87.278      142.21    
  224.46      325.76      426.40      501.09      528.73      501.09      426.40      325.76      224.46      142.21    
  87.278      56.636      41.210      34.892      37.284      61.959      145.19      310.99      552.88      832.64    
  1093.1      1276.9      1276.9      1213.1      1036.0      786.16      519.22      290.15      134.80      58.127    
  36.015      33.818      39.917      54.671      83.589      135.48      213.53      310.07      406.29      477.88    
  504.39      477.88      406.29      310.07      213.53      135.48      83.589      54.671      39.917      33.818    
  36.015      58.127      134.80      290.15      519.22      786.16      1036.0      1213.1      1093.1      1036.0    
  878.76      659.17      428.40      234.86      107.91      48.531      32.645      30.852      36.340      49.324    
  73.675      117.29      183.68      266.84      350.55      413.24      436.54      413.24      350.55      266.84    
  183.68      117.29      73.675      49.324      36.340      30.852      32.645      48.531      107.91      234.86    
  428.40      659.17      878.76      1036.0      832.64      786.16      659.17      485.02      307.00      163.57    
  75.036      37.511      27.974      26.662      31.263      41.894      60.420      92.839      142.90      206.79    
  272.12      321.56      340.03      321.56      272.12      206.79      142.90      92.839      60.420      41.894    
  31.263      26.662      27.974      37.511      75.036      163.57      307.00      485.02      659.17      786.16    
  552.88      519.22      428.40      307.00      187.87      97.713      47.282      28.659      22.883      22.068    
  25.655      33.718      46.975      68.368      101.36      144.32      189.11      223.48      236.41      223.48    
  189.11      144.32      101.36      68.368      46.975      33.718      25.655      22.068      22.883      28.659    
  47.282      97.713      187.87      307.00      428.40      519.22      310.99      290.15      234.86      163.57    
  97.713      52.439      30.449      22.085      18.212      17.775      20.356      25.998      35.139      48.364    
  67.433      92.304      118.67      139.21      146.99      139.21      118.67      92.304      67.433      48.364    
  35.139      25.998      20.356      17.775      18.212      22.085      30.449      52.439      97.713      163.57    
  234.86      290.15      145.19      134.80      107.91      75.036      47.282      30.449      22.083      16.985    
  14.489      14.216      15.888      19.526      25.382      33.662      44.210      56.905      70.170      80.543    
  84.496      80.543      70.170      56.905      44.210      33.662      25.382      19.526      15.888      14.216    
  14.489      16.985      22.083      30.449      47.282      75.036      107.91      134.80      61.959      58.127    
  48.531      37.511      28.659      22.085      16.985      13.619      11.887      11.548      12.442      14.571    
  18.048      22.946      29.088      35.846      42.188      46.898      48.662      46.898      42.188      35.846    
  29.088      22.946      18.048      14.571      12.442      11.548      11.887      13.619      16.985      22.085    
  28.659      37.511      48.531      58.127      37.284      36.015      32.645      27.974      22.883      18.212    
  14.489      11.887      10.350      9.7441      9.9778      11.031      12.921      15.634      19.020      22.710    
  26.114      28.539      29.421      28.539      26.114      22.710      19.020      15.634      12.921      11.031    
  9.9778      9.7441      10.350      11.887      14.489      18.212      22.883      27.974      32.645      36.015    
  34.892      33.818      30.852      26.662      22.068      17.775      14.216      11.548      9.7441      8.7109    
  8.3631      8.6445      9.5111      10.895      12.662      14.583      16.341      17.585      18.035      17.585    
  16.341      14.583      12.662      10.895      9.5111      8.6445      8.3631      8.7109      9.7441      11.548    
  14.216      17.775      22.068      26.662      30.852      33.818      41.210      39.917      36.340      31.263    
  25.655      20.356      15.888      12.442      9.9778      8.3631      7.4576      7.1457      7.3291      7.9063    
  8.7536      9.7137      10.601      11.228      11.455      11.228      10.601      9.7137      8.7536      7.9063    
  7.3291      7.1457      7.4576      8.3631      9.9778      12.442      15.888      20.356      25.655      31.263    
  36.340      39.917      56.636      54.671      49.324      41.894      33.718      25.998      19.526      14.571    
  11.031      8.6445      7.1457      6.3185      5.9974      6.0492      6.3535      6.7866      7.2192      7.5339    
  7.6485      7.5339      7.2192      6.7866      6.3535      6.0492      5.9974      6.3185      7.1457      8.6445    
  11.031      14.571      19.526      25.998      33.718      41.894      49.324      54.671      87.278      83.589    
  73.675      60.420      46.975      35.139      25.382      18.048      12.921      9.5111      7.3291      5.9974    
  5.2503      4.9097      4.8500      4.9617      5.1355      5.2780      5.3316      5.2780      5.1355      4.9617    
  4.8500      4.9097      5.2503      5.9974      7.3291      9.5111      12.921      18.048      25.382      35.139    
  46.975      60.420      73.675      83.589      142.21      135.48      117.29      92.839      68.368      48.364    
  33.662      22.946      15.634      10.895      7.9063      6.0492      4.9097      4.2399      3.8992      3.7826    
  3.7841      3.8151      3.8292      3.8151      3.7841      3.7826      3.8992      4.2399      4.9097      6.0492    
  7.9063      10.895      15.634      22.946      33.662      48.364      68.368      92.839      117.29      135.48    
  224.46      213.53      183.68      142.90      101.36      67.433      44.210      29.088      19.020      12.662    
  8.7536      6.3535      4.8500      3.8992      3.3345      3.0499      2.9329      2.8887      2.8760      2.8887    
  2.9329      3.0499      3.3345      3.8992      4.8500      6.3535      8.7536      12.662      19.020      29.088    
  44.210      67.433      101.36      142.90      183.68      213.53      325.76      310.07      266.84      206.79    
  144.32      92.304      56.905      35.846      22.710      14.583      9.7137      6.7866      4.9617      3.7826    
  3.0499      2.6519      2.4633      2.3755      2.3471      2.3755      2.4633      2.6519      3.0499      3.7826    
  4.9617      6.7866      9.7137      14.583      22.710      35.846      56.905      92.304      144.32      206.79    
  266.84      310.07      426.40      406.29      350.55      272.12      189.11      118.67      70.170      42.188    
  26.114      16.341      10.601      7.2192      5.1355      3.7841      2.9329      2.4633      2.2357      2.1261    
  2.0896      2.1261      2.2357      2.4633      2.9329      3.7841      5.1355      7.2192      10.601      16.341    
  26.114      42.188      70.170      118.67      189.11      272.12      350.55      406.29      501.09      477.88    
  413.24      321.56      223.48      139.21      80.543      46.898      28.539      17.585      11.228      7.5339    
  5.2780      3.8151      2.8887      2.3755      2.1261      2.0047      1.9639      2.0047      2.1261      2.3755    
  2.8887      3.8151      5.2780      7.5339      11.228      17.585      28.539      46.898      80.543      139.21    
  223.48      321.56      413.24      477.88      528.73      504.39      436.54      340.03      236.41      146.99    
  84.496      48.662      29.421      18.035      11.455      7.6485      5.3316      3.8292      2.8760      2.3471    
  2.0896      1.9639      1.9214      1.9639      2.0896      2.3471      2.8760      3.8292      5.3316      7.6485    
  11.455      18.035      29.421      48.662      84.496      146.99      236.41      340.03      436.54      504.39    
  501.09      477.88      413.24      321.56      223.48      139.21      80.543      46.898      28.539      17.585    
  11.228      7.5339      5.2780      3.8151      2.8887      2.3755      2.1261      2.0047      1.9639      2.0047    
  2.1261      2.3755      2.8887      3.8151      5.2780      7.5339      11.228      17.585      28.539      46.898    
  80.543      139.21      223.48      321.56      413.24      477.88      426.40      406.29      350.55      272.12    
  189.11      118.67      70.170      42.188      26.114      16.341      10.601      7.2192      5.1355      3.7841    
  2.9329      2.4633      2.2357      2.1261      2.0896      2.1261      2.2357      2.4633      2.9329      3.7841    
  5.1355      7.2192      10.601      16.341      26.114      42.188      70.170      118.67      189.11      272.12    
  350.55      406.29      325.76      310.07      266.84      206.79      144.32      92.304      56.905      35.846    
  22.710      14.583      9.7137      6.7866      4.9617      3.7826      3.0499      2.6519      2.4633      2.3755    
  2.3471      2.3755      2.4633      2.6519      3.0499      3.7826      4.9617      6.7866      9.7137      14.583    
  22.710      35.846      56.905      92.304      144.32      206.79      266.84      310.07      224.46      213.53    
  183.68      142.90      101.36      67.433      44.210      29.088      19.020      12.662      8.7536      6.3535    
  4.8500      3.8992      3.3345      3.0499      2.9329      2.8887      2.8760      2.8887      2.9329      3.0499    
  3.3345      3.8992      4.8500      6.3535      8.7536      12.662      19.020      29.088      44.210      67.433    
  101.36      142.90      183.68      213.53      142.21      135.48      117.29      92.839      68.368      48.364    
  33.662      22.946      15.634      10.895      7.9063      6.0492      4.9097      4.2399      3.8992      3.7826    
  3.7841      3.8151      3.8292      3.8151      3.7841      3.7826      3.8992      4.2399      4.9097      6.0492    
  7.9063      10.895      15.634      22.946      33.662      48.364      68.368      92.839      117.29      135.48    
  87.278      83.589      73.675      60.420      46.975      35.139      25.382      18.048      12.921      9.5111    
  7.3291      5.9974      5.2503      4.9097      4.8500      4.9617      5.1355      5.2780      5.3316      5.2780    
  5.1355      4.9617      4.8500      4.9097      5.2503      5.9974      7.3291      9.5111      12.921      18.048    
  25.382      35.139      46.975      60.420      73.675      83.589      56.636      54.671      49.324      41.894    
  33.718      25.998      19.526      14.571      11.031      8.6445      7.1457      6.3185      5.9974      6.0492    
  6.3535      6.7866      7.2192      7.5339      7.6485      7.5339      7.2192      6.7866      6.3535      6.0492    
  5.9974      6.3185      7.1457      8.6445      11.031      14.571      19.526      25.998      33.718      41.894    
  49.324      54.671      41.210      39.917      36.340      31.263      25.655      20.356      15.888      12.442    
  9.9778      8.3631      7.4576      7.1457      7.3291      7.9063      8.7536      9.7137      10.601      11.228    
  11.455      11.228      10.601      9.7137      8.7536      7.9063      7.3291      7.1457      7.4576      8.3631    
  9.9778      12.442      15.888      20.356      25.655      31.263      36.340      39.917      34.892      33.818    
  30.852      26.662      22.068      17.775      14.216      11.548      9.7441      8.7109      8.3631      8.6445    
  9.5111      10.895      12.662      14.583      16.341      17.585      18.035      17.585      16.341      14.583    
  12.662      10.895      9.5111      8.6445      8.3631      8.7109      9.7441      11.548      14.216      17.775    
  22.068      26.662      30.852      33.818      37.284      36.015      32.645      27.974      22.883      18.212    
  14.489      11.887      10.350      9.7441      9.9778      11.031      12.921      15.634      19.020      22.710    
  26.114      28.539      29.421      28.539      26.114      22.710      19.020      15.634      12.921      11.031    
  9.9778      9.7441      10.350      11.887      14.489      18.212      22.883      27.974      32.645      36.015    
  61.959      58.127      48.531      37.511      28.659      22.085      16.985      13.619      11.887      11.548    
  12.442      14.571      18.048      22.946      29.088      35.846      42.188      46.898      48.662      46.898    
  42.188      35.846      29.088      22.946      18.048      14.571      12.442      11.548      11.887      13.619    
  16.985      22.085      28.659      37.511      48.531      58.127      145.19      134.80      107.91      75.036    
  47.282      30.449      22.083      16.985      14.489      14.216      15.888      19.526      25.382      33.662    
  44.210      56.905      70.170      80.543      84.496      80.543      70.170      56.905      44.210      33.662    
  25.382      19.526      15.888      14.216      14.489      16.985      22.083      30.449      47.282      75.036    
  107.91      134.80      310.99      290.15      234.86      163.57      97.713      52.439      30.449      22.085    
  18.212      17.775      20.356      25.998      35.139      48.364      67.433      92.304      118.67      139.21    
  146.99      139.21      118.67      92.304      67.433      48.364      35.139      25.998      20.356      17.775    