unknown system                          
   1.00000000000000     
     4.100000    0.000000    0.000000
     0.000000    4.100000    0.000000
     0.000000    0.000000    4.100000
   Sr   Fe   O 
     1     1     3
Direct
  0.500000  0.500000  0.500000
  0.000000  0.000000  0.000000
  0.500000  0.000000  0.000000
  0.000000  0.500000  0.000000
  0.000000  0.000000  0.500000
 
   36   36   36
 0.14116200317E+04 0.13431039728E+04 0.11524209052E+04 0.88121042497E+03 0.58828062823E+03
 0.33310845386E+03 0.15636081660E+03 0.66147116562E+02 0.38645494897E+02 0.36013271452E+02
 0.42556847663E+02 0.58703954953E+02 0.91175208823E+02 0.14929835426E+03 0.23591319275E+03
 0.34212900773E+03 0.44728161892E+03 0.52514801401E+03 0.55392082836E+03 0.52514801401E+03
 0.44728161892E+03 0.34212900773E+03 0.23591319275E+03 0.14929835426E+03 0.91175208823E+02
 0.58703954953E+02 0.42556847663E+02 0.36013271452E+02 0.38645494897E+02 0.66147116562E+02
 0.15636081660E+03 0.33310845386E+03 0.58828062823E+03 0.88121042497E+03 0.11524209052E+04
 0.13431039728E+04 0.13431039728E+04 0.12769217045E+04 0.10930978564E+04 0.83263935261E+03
 0.55287686965E+03 0.31099132237E+03 0.14519458681E+03 0.61958792199E+02 0.37284080496E+02
 0.34892308867E+02 0.41209768067E+02 0.56636459351E+02 0.87277654169E+02 0.14221326543E+03
 0.22446079514E+03 0.32576468851E+03 0.42639952075E+03 0.50109444437E+03 0.52872790479E+03
 0.50109444437E+03 0.42639952075E+03 0.32576468851E+03 0.22446079514E+03 0.14221326543E+03
 0.87277654169E+02 0.56636459351E+02 0.41209768067E+02 0.34892308867E+02 0.37284080496E+02
 0.61958792199E+02 0.14519458681E+03 0.31099132237E+03 0.55287686965E+03 0.83263935261E+03
 0.10930978564E+04 0.12769217045E+04 0.11524209052E+04 0.10930978564E+04 0.92926664157E+03
 0.69971337790E+03 0.45718047946E+03 0.25220562883E+03 0.11622738266E+03 0.51447191210E+02
 0.33709816613E+02 0.31799477397E+02 0.37483916274E+02 0.51021290461E+02 0.76797246775E+02
 0.12303462398E+03 0.19315143098E+03 0.28061921637E+03 0.36838327028E+03 0.43396783955E+03
 0.45831383520E+03 0.43396783955E+03 0.36838327028E+03 0.28061921637E+03 0.19315143098E+03
 0.12303462398E+03 0.76797246775E+02 0.51021290461E+02 0.37483916274E+02 0.31799477397E+02
 0.33709816613E+02 0.51447191210E+02 0.11622738266E+03 0.25220562883E+03 0.45718047946E+03
 0.69971337790E+03 0.92926664157E+03 0.10930978564E+04 0.88121042497E+03 0.83263935261E+03
 0.69971337790E+03 0.51679827237E+03 0.32879732502E+03 0.17609086207E+03 0.80632201591E+02
 0.39336426626E+02 0.28841102361E+02 0.27433957312E+02 0.32198615427E+02 0.43256132299E+02
 0.62783790876E+02 0.97197936902E+02 0.15022470652E+03 0.21767250049E+03 0.28642658858E+03
 0.33835864276E+03 0.35774048479E+03 0.33835864276E+03 0.28642658858E+03 0.21767250049E+03
 0.15022470652E+03 0.97197936902E+02 0.62783790876E+02 0.43256132299E+02 0.32198615427E+02
 0.27433957312E+02 0.28841102361E+02 0.39336426626E+02 0.80632201591E+02 0.17609086207E+03
 0.32879732502E+03 0.51679827237E+03 0.69971337790E+03 0.83263935261E+03 0.58828062823E+03
 0.55287686965E+03 0.45718047946E+03 0.32879732502E+03 0.20207924454E+03 0.10528246030E+03
 0.50318934338E+02 0.29660063304E+02 0.23541215862E+02 0.22654650471E+02 0.26367085032E+02
 0.34752392827E+02 0.48605967650E+02 0.71279909668E+02 0.10632934399E+03 0.15187629790E+03
 0.19924329218E+03 0.23552481397E+03 0.24916152396E+03 0.23552481397E+03 0.19924329218E+03
 0.15187629790E+03 0.10632934399E+03 0.71279909668E+02 0.48605967650E+02 0.34752392827E+02
 0.26367085032E+02 0.22654650471E+02 0.23541215862E+02 0.29660063304E+02 0.50318934338E+02
 0.10528246030E+03 0.20207924454E+03 0.32879732502E+03 0.45718047946E+03 0.55287686965E+03
 0.33310845386E+03 0.31099132237E+03 0.25220562883E+03 0.17609086207E+03 0.10528246030E+03
 0.56041278084E+02 0.31757609101E+02 0.22751340455E+02 0.18683055166E+02 0.18198184764E+02
 0.20866882692E+02 0.26730355391E+02 0.36242323545E+02 0.50110743476E+02 0.70351564382E+02
 0.96807096539E+02 0.12482937476E+03 0.14662394375E+03 0.15488233596E+03 0.14662394375E+03
 0.12482937476E+03 0.96807096539E+02 0.70351564382E+02 0.50110743476E+02 0.36242323545E+02
 0.26730355391E+02 0.20866882692E+02 0.18198184764E+02 0.18683055166E+02 0.22751340455E+02
 0.31757609101E+02 0.56041278084E+02 0.10528246030E+03 0.17609086207E+03 0.25220562883E+03
 0.31099132237E+03 0.15636081660E+03 0.14519458681E+03 0.11622738266E+03 0.80632201591E+02
 0.50318934338E+02 0.31757609101E+02 0.22767825850E+02 0.17437852763E+02 0.14815729082E+02
 0.14514662105E+02 0.16241307406E+02 0.20015545107E+02 0.26102251154E+02 0.34716721869E+02
 0.45757329361E+02 0.59208450183E+02 0.73323518778E+02 0.84372081488E+02 0.88582308268E+02
 0.84372081488E+02 0.73323518778E+02 0.59208450183E+02 0.45757329361E+02 0.34716721869E+02
 0.26102251154E+02 0.20015545107E+02 0.16241307406E+02 0.14514662105E+02 0.14815729082E+02
 0.17437852763E+02 0.22767825850E+02 0.31757609101E+02 0.50318934338E+02 0.80632201591E+02
 0.11622738266E+03 0.14519458681E+03 0.66147116562E+02 0.61958792199E+02 0.51447191210E+02
 0.39336426626E+02 0.29660063304E+02 0.22751340455E+02 0.17437852763E+02 0.13927739600E+02
 0.12120495155E+02 0.11761822848E+02 0.12683480969E+02 0.14887490495E+02 0.18492587222E+02
 0.23579319946E+02 0.29964197439E+02 0.36996694401E+02 0.43644275112E+02 0.48616422317E+02
 0.50484492052E+02 0.48616422317E+02 0.43644275112E+02 0.36996694401E+02 0.29964197439E+02
 0.23579319946E+02 0.18492587222E+02 0.14887490495E+02 0.12683480969E+02 0.11761822848E+02
 0.12120495155E+02 0.13927739600E+02 0.17437852763E+02 0.22751340455E+02 0.29660063304E+02
 0.39336426626E+02 0.51447191210E+02 0.61958792199E+02 0.38645494897E+02 0.37284080496E+02
 0.33709816613E+02 0.28841102361E+02 0.23541215862E+02 0.18683055166E+02 0.14815729082E+02
 0.12120495155E+02 0.10531355216E+02 0.99065776017E+01 0.10148212639E+02 0.11235205104E+02
 0.13189244784E+02 0.15997062181E+02 0.19506522353E+02 0.23336726018E+02 0.26872259880E+02
 0.29392754819E+02 0.30308978264E+02 0.29392754819E+02 0.26872259880E+02 0.23336726018E+02
 0.19506522353E+02 0.15997062181E+02 0.13189244784E+02 0.11235205104E+02 0.10148212639E+02
 0.99065776017E+01 0.10531355216E+02 0.12120495155E+02 0.14815729082E+02 0.18683055166E+02
 0.23541215862E+02 0.28841102361E+02 0.33709816613E+02 0.37284080496E+02 0.36013271452E+02
 0.34892308867E+02 0.31799477397E+02 0.27433957312E+02 0.22654650471E+02 0.18198184764E+02
 0.14514662105E+02 0.11761822848E+02 0.99065776017E+01 0.88469062546E+01 0.84915166780E+01
 0.87821204122E+01 0.96747120220E+01 0.11100959936E+02 0.12924765390E+02 0.14910685900E+02
 0.16728837445E+02 0.18015880248E+02 0.18481983414E+02 0.18015880248E+02 0.16728837445E+02
 0.14910685900E+02 0.12924765390E+02 0.11100959936E+02 0.96747120220E+01 0.87821204122E+01
 0.84915166780E+01 0.88469062546E+01 0.99065776017E+01 0.11761822848E+02 0.14514662105E+02
 0.18198184764E+02 0.22654650471E+02 0.27433957312E+02 0.31799477397E+02 0.34892308867E+02
 0.42556847663E+02 0.41209768067E+02 0.37483916274E+02 0.32198615427E+02 0.26367085032E+02
 0.20866882692E+02 0.16241307406E+02 0.12683480969E+02 0.10148212639E+02 0.84915166780E+01
 0.75646314950E+01 0.72462593001E+01 0.74348759192E+01 0.80272330343E+01 0.88974279984E+01
 0.98844083010E+01 0.10796995738E+02 0.11443021849E+02 0.11676619966E+02 0.11443021849E+02
 0.10796995738E+02 0.98844083010E+01 0.88974279984E+01 0.80272330343E+01 0.74348759192E+01
 0.72462593001E+01 0.75646314950E+01 0.84915166780E+01 0.10148212639E+02 0.12683480969E+02
 0.16241307406E+02 0.20866882692E+02 0.26367085032E+02 0.32198615427E+02 0.37483916274E+02
 0.41209768067E+02 0.58703954953E+02 0.56636459351E+02 0.51021290461E+02 0.43256132299E+02
 0.34752392827E+02 0.26730355391E+02 0.20015545107E+02 0.14887490495E+02 0.11235205104E+02
 0.87821204122E+01 0.72462593001E+01 0.64004910994E+01 0.60721526647E+01 0.61244770661E+01
 0.64350914363E+01 0.68781016176E+01 0.73214847874E+01 0.76443069427E+01 0.77619665948E+01
 0.76443069427E+01 0.73214847874E+01 0.68781016176E+01 0.64350914363E+01 0.61244770661E+01
 0.60721526647E+01 0.64004910994E+01 0.72462593001E+01 0.87821204122E+01 0.11235205104E+02
 0.14887490495E+02 0.20015545107E+02 0.26730355391E+02 0.34752392827E+02 0.43256132299E+02
 0.51021290461E+02 0.56636459351E+02 0.91175208823E+02 0.87277654169E+02 0.76797246775E+02
 0.62783790876E+02 0.48605967650E+02 0.36242323545E+02 0.26102251154E+02 0.18492587222E+02
 0.13189244784E+02 0.96747120220E+01 0.74348759192E+01 0.60721526647E+01 0.53084622057E+01
 0.49591076969E+01 0.48964234253E+01 0.50095577538E+01 0.51871779943E+01 0.53331691252E+01
 0.53880972865E+01 0.53331691252E+01 0.51871779943E+01 0.50095577538E+01 0.48964234253E+01
 0.49591076969E+01 0.53084622057E+01 0.60721526647E+01 0.74348759192E+01 0.96747120220E+01
 0.13189244784E+02 0.18492587222E+02 0.26102251154E+02 0.36242323545E+02 0.48605967650E+02
 0.62783790876E+02 0.76797246775E+02 0.87277654169E+02 0.14929835426E+03 0.14221326543E+03
 0.12303462398E+03 0.97197936902E+02 0.71279909668E+02 0.50110743476E+02 0.34716721869E+02
 0.23579319946E+02 0.15997062181E+02 0.11100959936E+02 0.80272330343E+01 0.61244770661E+01
 0.49591076969E+01 0.42729869856E+01 0.39224304450E+01 0.38017481506E+01 0.38028680023E+01
 0.38344769758E+01 0.38488870176E+01 0.38344769758E+01 0.38028680023E+01 0.38017481506E+01
 0.39224304450E+01 0.42729869856E+01 0.49591076969E+01 0.61244770661E+01 0.80272330343E+01
 0.11100959936E+02 0.15997062181E+02 0.23579319946E+02 0.34716721869E+02 0.50110743476E+02
 0.71279909668E+02 0.97197936902E+02 0.12303462398E+03 0.14221326543E+03 0.23591319275E+03
 0.22446079514E+03 0.19315143098E+03 0.15022470652E+03 0.10632934399E+03 0.70351564382E+02
 0.45757329361E+02 0.29964197439E+02 0.19506522353E+02 0.12924765390E+02 0.88974279984E+01
 0.64350914363E+01 0.48964234253E+01 0.39224304450E+01 0.33424655739E+01 0.30497408843E+01
 0.29295528067E+01 0.28842080459E+01 0.28711377505E+01 0.28842080459E+01 0.29295528067E+01
 0.30497408843E+01 0.33424655739E+01 0.39224304450E+01 0.48964234253E+01 0.64350914363E+01
 0.88974279984E+01 0.12924765390E+02 0.19506522353E+02 0.29964197439E+02 0.45757329361E+02
 0.70351564382E+02 0.10632934399E+03 0.15022470652E+03 0.19315143098E+03 0.22446079514E+03
 0.34212900773E+03 0.32576468851E+03 0.28061921637E+03 0.21767250049E+03 0.15187629790E+03
 0.96807096539E+02 0.59208450183E+02 0.36996694401E+02 0.23336726018E+02 0.14910685900E+02
 0.98844083010E+01 0.68781016176E+01 0.50095577538E+01 0.38017481506E+01 0.30497408843E+01
 0.26412249652E+01 0.24482573411E+01 0.23587932048E+01 0.23297841332E+01 0.23587932048E+01
 0.24482573411E+01 0.26412249652E+01 0.30497408843E+01 0.38017481506E+01 0.50095577538E+01
 0.68781016176E+01 0.98844083010E+01 0.14910685900E+02 0.23336726018E+02 0.36996694401E+02
 0.59208450183E+02 0.96807096539E+02 0.15187629790E+03 0.21767250049E+03 0.28061921637E+03
 0.32576468851E+03 0.44728161892E+03 0.42639952075E+03 0.36838327028E+03 0.28642658858E+03
 0.19924329218E+03 0.12482937476E+03 0.73323518778E+02 0.43644275112E+02 0.26872259880E+02
 0.16728837445E+02 0.10796995738E+02 0.73214847874E+01 0.51871779943E+01 0.38028680023E+01
 0.29295528067E+01 0.24482573411E+01 0.22165012575E+01 0.21055532552E+01 0.20686847342E+01
 0.21055532552E+01 0.22165012575E+01 0.24482573411E+01 0.29295528067E+01 0.38028680023E+01
 0.51871779943E+01 0.73214847874E+01 0.10796995738E+02 0.16728837445E+02 0.26872259880E+02
 0.43644275112E+02 0.73323518778E+02 0.12482937476E+03 0.19924329218E+03 0.28642658858E+03
 0.36838327028E+03 0.42639952075E+03 0.52514801401E+03 0.50109444437E+03 0.43396783955E+03
 0.33835864276E+03 0.23552481397E+03 0.14662394375E+03 0.84372081488E+02 0.48616422317E+02
 0.29392754819E+02 0.18015880248E+02 0.11443021849E+02 0.76443069427E+01 0.53331691252E+01
 0.38344769758E+01 0.28842080459E+01 0.23587932048E+01 0.21055532552E+01 0.19834771945E+01
 0.19425162691E+01 0.19834771945E+01 0.21055532552E+01 0.23587932048E+01 0.28842080459E+01
 0.38344769758E+01 0.53331691252E+01 0.76443069427E+01 0.11443021849E+02 0.18015880248E+02
 0.29392754819E+02 0.48616422317E+02 0.84372081488E+02 0.14662394375E+03 0.23552481397E+03
 0.33835864276E+03 0.43396783955E+03 0.50109444437E+03 0.55392082836E+03 0.52872790479E+03
 0.45831383520E+03 0.35774048479E+03 0.24916152396E+03 0.15488233596E+03 0.88582308268E+02
 0.50484492052E+02 0.30308978264E+02 0.18481983414E+02 0.11676619966E+02 0.77619665948E+01
 0.53880972865E+01 0.38488870176E+01 0.28711377505E+01 0.23297841332E+01 0.20686847342E+01
 0.19425162691E+01 0.19000542475E+01 0.19425162691E+01 0.20686847342E+01 0.23297841332E+01
 0.28711377505E+01 0.38488870176E+01 0.53880972865E+01 0.77619665948E+01 0.11676619966E+02
 0.18481983414E+02 0.30308978264E+02 0.50484492052E+02 0.88582308268E+02 0.15488233596E+03
 0.24916152396E+03 0.35774048479E+03 0.45831383520E+03 0.52872790479E+03 0.52514801401E+03
 0.50109444437E+03 0.43396783955E+03 0.33835864276E+03 0.23552481397E+03 0.14662394375E+03
 0.84372081488E+02 0.48616422317E+02 0.29392754819E+02 0.18015880248E+02 0.11443021849E+02
 0.76443069427E+01 0.53331691252E+01 0.38344769758E+01 0.28842080459E+01 0.23587932048E+01
 0.21055532552E+01 0.19834771945E+01 0.19425162691E+01 0.19834771945E+01 0.21055532552E+01
 0.23587932048E+01 0.28842080459E+01 0.38344769758E+01 0.53331691252E+01 0.76443069427E+01
 0.11443021849E+02 0.18015880248E+02 0.29392754819E+02 0.48616422317E+02 0.84372081488E+02
 0.14662394375E+03 0.23552481397E+03 0.33835864276E+03 0.43396783955E+03 0.50109444437E+03
 0.44728161892E+03 0.42639952075E+03 0.36838327028E+03 0.28642658858E+03 0.19924329218E+03
 0.12482937476E+03 0.73323518778E+02 0.43644275112E+02 0.26872259880E+02 0.16728837445E+02
 0.10796995738E+02 0.73214847874E+01 0.51871779943E+01 0.38028680023E+01 0.29295528067E+01
 0.24482573411E+01 0.22165012575E+01 0.21055532552E+01 0.20686847342E+01 0.21055532552E+01
 0.22165012575E+01 0.24482573411E+01 0.29295528067E+01 0.38028680023E+01 0.51871779943E+01
 0.73214847874E+01 0.10796995738E+02 0.16728837445E+02 0.26872259880E+02 0.43644275112E+02
 0.73323518778E+02 0.12482937476E+03 0.19924329218E+03 0.28642658858E+03 0.36838327028E+03
 0.42639952075E+03 0.34212900773E+03 0.32576468851E+03 0.28061921637E+03 0.21767250049E+03
 0.15187629790E+03 0.96807096539E+02 0.59208450183E+02 0.36996694401E+02 0.23336726018E+02
 0.14910685900E+02 0.98844083010E+01 0.68781016176E+01 0.50095577538E+01 0.38017481506E+01
 0.30497408843E+01 0.26412249652E+01 0.24482573411E+01 0.23587932048E+01 0.23297841332E+01
 0.23587932048E+01 0.24482573411E+01 0.26412249652E+01 0.30497408843E+01 0.38017481506E+01
 0.50095577538E+01 0.68781016176E+01 0.98844083010E+01 0.14910685900E+02 0.23336726018E+02
 0.36996694401E+02 0.59208450183E+02 0.96807096539E+02 0.15187629790E+03 0.21767250049E+03
 0.28061921637E+03 0.32576468851E+03 0.23591319275E+03 0.22446079514E+03 0.19315143098E+03
 0.15022470652E+03 0.10632934399E+03 0.70351564382E+02 0.45757329361E+02 0.29964197439E+02
 0.19506522353E+02 0.12924765390E+02 0.88974279984E+01 0.64350914363E+01 0.48964234253E+01
 0.39224304450E+01 0.33424655739E+01 0.30497408843E+01 0.29295528067E+01 0.28842080459E+01
 0.28711377505E+01 0.28842080459E+01 0.29295528067E+01 0.30497408843E+01 0.33424655739E+01
 0.39224304450E+01 0.48964234253E+01 0.64350914363E+01 0.88974279984E+01 0.12924765390E+02
 0.19506522353E+02 0.29964197439E+02 0.45757329361E+02 0.70351564382E+02 0.10632934399E+03
 0.15022470652E+03 0.19315143098E+03 0.22446079514E+03 0.14929835426E+03 0.14221326543E+03
 0.12303462398E+03 0.97197936902E+02 0.71279909668E+02 0.50110743476E+02 0.34716721869E+02
 0.23579319946E+02 0.15997062181E+02 0.11100959936E+02 0.80272330343E+01 0.61244770661E+01
 0.49591076969E+01 0.42729869856E+01 0.39224304450E+01 0.38017481506E+01 0.38028680023E+01
 0.38344769758E+01 0.38488870176E+01 0.38344769758E+01 0.38028680023E+01 0.38017481506E+01
 0.39224304450E+01 0.42729869856E+01 0.49591076969E+01 0.61244770661E+01 0.80272330343E+01
 0.11100959936E+02 0.15997062181E+02 0.23579319946E+02 0.34716721869E+02 0.50110743476E+02
 0.71279909668E+02 0.97197936902E+02 0.12303462398E+03 0.14221326543E+03 0.91175208823E+02
 0.87277654169E+02 0.76797246775E+02 0.62783790876E+02 0.48605967650E+02 0.36242323545E+02
 0.26102251154E+02 0.18492587222E+02 0.13189244784E+02 0.96747120220E+01 0.74348759192E+01
 0.60721526647E+01 0.53084622057E+01 0.49591076969E+01 0.48964234253E+01 0.50095577538E+01
 0.51871779943E+01 0.53331691252E+01 0.53880972865E+01 0.53331691252E+01 0.51871779943E+01
 0.50095577538E+01 0.48964234253E+01 0.49591076969E+01 0.53084622057E+01 0.60721526647E+01
 0.74348759192E+01 0.96747120220E+01 0.13189244784E+02 0.18492587222E+02 0.26102251154E+02
 0.36242323545E+02 0.48605967650E+02 0.62783790876E+02 0.76797246775E+02 0.87277654169E+02
 0.58703954953E+02 0.56636459351E+02 0.51021290461E+02 0.43256132299E+02 0.34752392827E+02
 0.26730355391E+02 0.20015545107E+02 0.14887490495E+02 0.11235205104E+02 0.87821204122E+01
 0.72462593001E+01 0.64004910994E+01 0.60721526647E+01 0.61244770661E+01 0.64350914363E+01
 0.68781016176E+01 0.73214847874E+01 0.76443069427E+01 0.77619665948E+01 0.76443069427E+01
 0.73214847874E+01 0.68781016176E+01 0.64350914363E+01 0.61244770661E+01 0.60721526647E+01
 0.64004910994E+01 0.72462593001E+01 0.87821204122E+01 0.11235205104E+02 0.14887490495E+02
 0.20015545107E+02 0.26730355391E+02 0.34752392827E+02 0.43256132299E+02 0.51021290461E+02
 0.56636459351E+02 0.42556847663E+02 0.41209768067E+02 0.37483916274E+02 0.32198615427E+02
 0.26367085032E+02 0.20866882692E+02 0.16241307406E+02 0.12683480969E+02 0.10148212639E+02
 0.84915166780E+01 0.75646314950E+01 0.72462593001E+01 0.74348759192E+01 0.80272330343E+01
 0.88974279984E+01 0.98844083010E+01 0.10796995738E+02 0.11443021849E+02 0.11676619966E+02
 0.11443021849E+02 0.10796995738E+02 0.98844083010E+01 0.88974279984E+01 0.80272330343E+01
 0.74348759192E+01 0.72462593001E+01 0.75646314950E+01 0.84915166780E+01 0.10148212639E+02
 0.12683480969E+02 0.16241307406E+02 0.20866882692E+02 0.26367085032E+02 0.32198615427E+02
 0.37483916274E+02 0.41209768067E+02 0.36013271452E+02 0.34892308867E+02 0.31799477397E+02
 0.27433957312E+02 0.22654650471E+02 0.18198184764E+02 0.14514662105E+02 0.11761822848E+02
 0.99065776017E+01 0.88469062546E+01 0.84915166780E+01 0.87821204122E+01 0.96747120220E+01
 0.11100959936E+02 0.12924765390E+02 0.14910685900E+02 0.16728837445E+02 0.18015880248E+02
 0.18481983414E+02 0.18015880248E+02 0.16728837445E+02 0.14910685900E+02 0.12924765390E+02
 0.11100959936E+02 0.96747120220E+01 0.87821204122E+01 0.84915166780E+01 0.88469062546E+01
 0.99065776017E+01 0.11761822848E+02 0.14514662105E+02 0.18198184764E+02 0.22654650471E+02
 0.27433957312E+02 0.31799477397E+02 0.34892308867E+02 0.38645494897E+02 0.37284080496E+02
 0.33709816613E+02 0.28841102361E+02 0.23541215862E+02 0.18683055166E+02 0.14815729082E+02
 0.12120495155E+02 0.10531355216E+02 0.99065776017E+01 0.10148212639E+02 0.11235205104E+02
 0.13189244784E+02 0.15997062181E+02 0.19506522353E+02 0.23336726018E+02 0.26872259880E+02
 0.29392754819E+02 0.30308978264E+02 0.29392754819E+02 0.26872259880E+02 0.23336726018E+02
 0.19506522353E+02 0.15997062181E+02 0.13189244784E+02 0.11235205104E+02 0.10148212639E+02
 0.99065776017E+01 0.10531355216E+02 0.12120495155E+02 0.14815729082E+02 0.18683055166E+02
 0.23541215862E+02 0.28841102361E+02 0.33709816613E+02 0.37284080496E+02 0.66147116562E+02
 0.61958792199E+02 0.51447191210E+02 0.39336426626E+02 0.29660063304E+02 0.22751340455E+02
 0.17437852763E+02 0.13927739600E+02 0.12120495155E+02 0.11761822848E+02 0.12683480969E+02
 0.14887490495E+02 0.18492587222E+02 0.23579319946E+02 0.29964197439E+02 0.36996694401E+02
 0.43644275112E+02 0.48616422317E+02 0.50484492052E+02 0.48616422317E+02 0.43644275112E+02
 0.36996694401E+02 0.29964197439E+02 0.23579319946E+02 0.18492587222E+02 0.14887490495E+02
 0.12683480969E+02 0.11761822848E+02 0.12120495155E+02 0.13927739600E+02 0.17437852763E+02
 0.22751340455E+02 0.29660063304E+02 0.39336426626E+02 0.51447191210E+02 0.61958792199E+02
 0.15636081660E+03 0.14519458681E+03 0.11622738266E+03 0.80632201591E+02 0.50318934338E+02
 0.31757609101E+02 0.22767825850E+02 0.17437852763E+02 0.14815729082E+02 0.14514662105E+02
 0.16241307406E+02 0.20015545107E+02 0.26102251154E+02 0.34716721869E+02 0.45757329361E+02
 0.59208450183E+02 0.73323518778E+02 0.84372081488E+02 0.88582308268E+02 0.84372081488E+02
 0.73323518778E+02 0.59208450183E+02 0.45757329361E+02 0.34716721869E+02 0.26102251154E+02
 0.20015545107E+02 0.16241307406E+02 0.14514662105E+02 0.14815729082E+02 0.17437852763E+02
 0.22767825850E+02 0.31757609101E+02 0.50318934338E+02 0.80632201591E+02 0.11622738266E+03
 0.14519458681E+03 0.33310845386E+03 0.31099132237E+03 0.25220562883E+03 0.17609086207E+03
 0.10528246030E+03 0.56041278084E+02 0.31757609101E+02 0.22751340455E+02 0.18683055166E+02
 0.18198184764E+02 0.20866882692E+02 0.26730355391E+02 0.36242323545E+02 0.50110743476E+02
 0.70351564382E+02 0.96807096539E+02 0.12482937476E+03 0.14662394375E+03 0.15488233596E+03
 0.14662394375E+03 0.12482937476E+03 0.96807096539E+02 0.70351564382E+02 0.50110743476E+02
 0.36242323545E+02 0.26730355391E+02 0.20866882692E+02 0.18198184764E+02 0.18683055166E+02
 0.22751340455E+02 0.31757609101E+02 0.56041278084E+02 0.10528246030E+03 0.17609086207E+03
 0.25220562883E+03 0.31099132237E+03 0.58828062823E+03 0.55287686965E+03 0.45718047946E+03
 0.32879732502E+03 0.20207924454E+03 0.10528246030E+03 0.50318934338E+02 0.29660063304E+02
 0.23541215862E+02 0.22654650471E+02 0.26367085032E+02 0.34752392827E+02 0.48605967650E+02
 0.71279909668E+02 0.10632934399E+03 0.15187629790E+03 0.19924329218E+03 0.23552481397E+03
 0.24916152396E+03 0.23552481397E+03 0.19924329218E+03 0.15187629790E+03 0.10632934399E+03
 0.71279909668E+02 0.48605967650E+02 0.34752392827E+02 0.26367085032E+02 0.22654650471E+02
 0.23541215862E+02 0.29660063304E+02 0.50318934338E+02 0.10528246030E+03 0.20207924454E+03
 0.32879732502E+03 0.45718047946E+03 0.55287686965E+03 0.88121042497E+03 0.83263935261E+03
 0.69971337790E+03 0.51679827237E+03 0.32879732502E+03 0.17609086207E+03 0.80632201591E+02
 0.39336426626E+02 0.28841102361E+02 0.27433957312E+02 0.32198615427E+02 0.43256132299E+02
 0.62783790876E+02 0.97197936902E+02 0.15022470652E+03 0.21767250049E+03 0.28642658858E+03
 0.33835864276E+03 0.35774048479E+03 0.33835864276E+03 0.28642658858E+03 0.21767250049E+03
 0.15022470652E+03 0.97197936902E+02 0.62783790876E+02 0.43256132299E+02 0.32198615427E+02
 0.27433957312E+02 0.28841102361E+02 0.39336426626E+02 0.80632201591E+02 0.17609086207E+03
 0.32879732502E+03 0.51679827237E+03 0.69971337790E+03 0.83263935261E+03 0.11524209052E+04
 0.10930978564E+04 0.92926664157E+03 0.69971337790E+03 0.45718047946E+03 0.25220562883E+03
 0.11622738266E+03 0.51447191210E+02 0.33709816613E+02 0.31799477397E+02 0.37483916274E+02
 0.51021290461E+02 0.76797246775E+02 0.12303462398E+03 0.19315143098E+03 0.28061921637E+03
 0.36838327028E+03 0.43396783955E+03 0.45831383520E+03 0.43396783955E+03 0.36838327028E+03
 0.28061921637E+03 0.19315143098E+03 0.12303462398E+03 0.76797246775E+02 0.51021290461E+02
 0.37483916274E+02 0.31799477397E+02 0.33709816613E+02 0.51447191210E+02 0.11622738266E+03
 0.25220562883E+03 0.45718047946E+03 0.69971337790E+03 0.92926664157E+03 0.10930978564E+04
 0.13431039728E+04 0.12769217045E+04 0.10930978564E+04 0.83263935261E+03 0.55287686965E+03
 0.31099132237E+03 0.14519458681E+03 0.61958792199E+02 0.37284080496E+02 0.34892308867E+02
 0.41209768067E+02 0.56636459351E+02 0.87277654169E+02 0.14221326543E+03 0.22446079514E+03
 0.32576468851E+03 0.42639952075E+03 0.50109444437E+03 0.52872790479E+03 0.50109444437E+03
 0.42639952075E+03 0.32576468851E+03 0.22446079514E+03 0.14221326543E+03 0.87277654169E+02
 0.56636459351E+02 0.41209768067E+02 0.34892308867E+02 0.37284080496E+02 0.61958792199E+02
 0.14519458681E+03 0.31099132237E+03 0.55287686965E+03 0.83263935261E+03 0.10930978564E+04
 0.12769217045E+04 0.13431039728E+04 0.12769217045E+04 0.10930978564E+04 0.83263935261E+03
 0.55287686965E+03 0.31099132237E+03 0.14519458681E+03 0.61958792199E+02 0.37284080496E+02
 0.34892308867E+02 0.41209768067E+02 0.56636459351E+02 0.87277654169E+02 0.14221326543E+03
 0.22446079514E+03 0.32576468851E+03 0.42639952075E+03 0.50109444437E+03 0.52872790479E+03
 0.50109444437E+03 0.42639952075E+03 0.32576468851E+03 0.22446079514E+03 0.14221326543E+03
 0.87277654169E+02 0.56636459351E+02 0.41209768067E+02 0.34892308867E+02 0.37284080496E+02
 0.61958792199E+02 0.14519458681E+03 0.31099132237E+03 0.55287686965E+03 0.83263935261E+03
 0.10930978564E+04 0.12769217045E+04 0.12769217045E+04 0.12130650782E+04 0.10360425766E+04
 0.78615791639E+03 0.51922160518E+03 0.29015084819E+03 0.13480280486E+03 0.58126669683E+02
 0.36014946258E+02 0.33817774263E+02 0.39916995194E+02 0.54671234622E+02 0.83588864526E+02
 0.13548306709E+03 0.21352563947E+03 0.31006562511E+03 0.40629264692E+03 0.47787969471E+03
 0.50439400681E+03 0.47787969471E+03 0.40629264692E+03 0.31006562511E+03 0.21352563947E+03
 0.13548306709E+03 0.83588864526E+02 0.54671234622E+02 0.39916995194E+02 0.33817774263E+02
 0.36014946258E+02 0.58126669683E+02 0.13480280486E+03 0.29015084819E+03 0.51922160518E+03
 0.78615791639E+03 0.10360425766E+04 0.12130650782E+04 0.10930978564E+04 0.10360425766E+04
 0.87875905641E+03 0.65916653680E+03 0.42840487709E+03 0.23486297913E+03 0.10790955541E+03
 0.48531348745E+02 0.32645225653E+02 0.30851836700E+02 0.36340279666E+02 0.49324438988E+02
 0.73674625853E+02 0.11729016245E+03 0.18368222524E+03 0.26684065588E+03 0.35055078614E+03
 0.41324272234E+03 0.43654047178E+03 0.41324272234E+03 0.35055078614E+03 0.26684065588E+03
 0.18368222524E+03 0.11729016245E+03 0.73674625853E+02 0.49324438988E+02 0.36340279666E+02
 0.30851836700E+02 0.32645225653E+02 0.48531348745E+02 0.10790955541E+03 0.23486297913E+03
 0.42840487709E+03 0.65916653680E+03 0.87875905641E+03 0.10360425766E+04 0.83263935261E+03
 0.78615791639E+03 0.65916653680E+03 0.48501934768E+03 0.30699919011E+03 0.16356934143E+03
 0.75035623724E+02 0.37511454567E+02 0.27974320108E+02 0.26661736324E+02 0.31263149499E+02
 0.41894217013E+02 0.60419847548E+02 0.92839413143E+02 0.14289582057E+03 0.20678971464E+03
 0.27211624412E+03 0.32156043297E+03 0.34003272615E+03 0.32156043297E+03 0.27211624412E+03
 0.20678971464E+03 0.14289582057E+03 0.92839413143E+02 0.60419847548E+02 0.41894217013E+02
 0.31263149499E+02 0.26661736324E+02 0.27974320108E+02 0.37511454567E+02 0.75035623724E+02
 0.16356934143E+03 0.30699919011E+03 0.48501934768E+03 0.65916653680E+03 0.78615791639E+03
 0.55287686965E+03 0.51922160518E+03 0.42840487709E+03 0.30699919011E+03 0.18786955157E+03
 0.97713189646E+02 0.47282204681E+02 0.28658541050E+02 0.22883109942E+02 0.22067727085E+02
 0.25654821146E+02 0.33717600541E+02 0.46974831840E+02 0.68367562303E+02 0.10135813699E+03
 0.14431971849E+03 0.18910993863E+03 0.22348107324E+03 0.23641196556E+03 0.22348107324E+03
 0.18910993863E+03 0.14431971849E+03 0.10135813699E+03 0.68367562303E+02 0.46974831840E+02
 0.33717600541E+02 0.25654821146E+02 0.22067727085E+02 0.22883109942E+02 0.28658541050E+02
 0.47282204681E+02 0.97713189646E+02 0.18786955157E+03 0.30699919011E+03 0.42840487709E+03
 0.51922160518E+03 0.31099132237E+03 0.29015084819E+03 0.23486297913E+03 0.16356934143E+03
 0.97713189646E+02 0.52439139653E+02 0.30448845980E+02 0.22084582392E+02 0.18212412159E+02
 0.17774767516E+02 0.20355733417E+02 0.25997873365E+02 0.35138566028E+02 0.48363791022E+02
 0.67433189408E+02 0.92303718871E+02 0.11867265920E+03 0.13920761054E+03 0.14699455841E+03
 0.13920761054E+03 0.11867265920E+03 0.92303718871E+02 0.67433189408E+02 0.48363791022E+02
 0.35138566028E+02 0.25997873365E+02 0.20355733417E+02 0.17774767516E+02 0.18212412159E+02
 0.22084582392E+02 0.30448845980E+02 0.52439139653E+02 0.97713189646E+02 0.16356934143E+03
 0.23486297913E+03 0.29015084819E+03 0.14519458681E+03 0.13480280486E+03 0.10790955541E+03
 0.75035623724E+02 0.47282204681E+02 0.30448845980E+02 0.22083226254E+02 0.16984929460E+02
 0.14488521516E+02 0.14216275634E+02 0.15888327592E+02 0.19525872366E+02 0.25382298303E+02
 0.33662174932E+02 0.44210165683E+02 0.56905024016E+02 0.70169561131E+02 0.80542895388E+02
 0.84495655753E+02 0.80542895388E+02 0.70169561131E+02 0.56905024016E+02 0.44210165683E+02
 0.33662174932E+02 0.25382298303E+02 0.19525872366E+02 0.15888327592E+02 0.14216275634E+02
 0.14488521516E+02 0.16984929460E+02 0.22083226254E+02 0.30448845980E+02 0.47282204681E+02
 0.75035623724E+02 0.10790955541E+03 0.13480280486E+03 0.61958792199E+02 0.58126669683E+02
 0.48531348745E+02 0.37511454567E+02 0.28658541050E+02 0.22084582392E+02 0.16984929460E+02
 0.13618883156E+02 0.11887458444E+02 0.11548116139E+02 0.12441760724E+02 0.14570980605E+02
 0.18047903102E+02 0.22946463452E+02 0.29087589885E+02 0.35845577798E+02 0.42188488198E+02
 0.46897669092E+02 0.48661876588E+02 0.46897669092E+02 0.42188488198E+02 0.35845577798E+02
 0.29087589885E+02 0.22946463452E+02 0.18047903102E+02 0.14570980605E+02 0.12441760724E+02
 0.11548116139E+02 0.11887458444E+02 0.13618883156E+02 0.16984929460E+02 0.22084582392E+02
 0.28658541050E+02 0.37511454567E+02 0.48531348745E+02 0.58126669683E+02 0.37284080496E+02
 0.36014946258E+02 0.32645225653E+02 0.27974320108E+02 0.22883109942E+02 0.18212412159E+02
 0.14488521516E+02 0.11887458444E+02 0.10350008909E+02 0.97441198381E+01 0.99778403664E+01
 0.11030690352E+02 0.12921374170E+02 0.15634031431E+02 0.19019516684E+02 0.22710014500E+02
 0.26113806012E+02 0.28539218952E+02 0.29420690830E+02 0.28539218952E+02 0.26113806012E+02
 0.22710014500E+02 0.19019516684E+02 0.15634031431E+02 0.12921374170E+02 0.11030690352E+02
 0.99778403664E+01 0.97441198381E+01 0.10350008909E+02 0.11887458444E+02 0.14488521516E+02
 0.18212412159E+02 0.22883109942E+02 0.27974320108E+02 0.32645225653E+02 0.36014946258E+02
 0.34892308867E+02 0.33817774263E+02 0.30851836700E+02 0.26661736324E+02 0.22067727085E+02