    5    5   99    2
  0.1378420E+02  0.4100000E-09  0.4100000E-09  0.4100000E-09  0.5000000E-15
  1.000000000000000E-004
  CAR 
 unknown system                          
     42     10     28
 
  0.8333333E-01  0.8333333E-01  0.8333333E-01  0.3703704E-01
    1      -55.642197    -51.142335   1.000000   1.000000
    2      -55.642022    -51.142201   1.000000   1.000000
    3      -55.642022    -51.142201   1.000000   1.000000
    4      -31.446293    -31.445669   1.000000   1.000000
    5      -15.709424    -15.355038   1.000000   1.000000
    6      -14.759836    -14.225081   1.000000   1.000000
    7      -14.759836    -14.225081   1.000000   1.000000
    8      -13.433654    -13.413431   1.000000   1.000000
    9      -13.433654    -13.413431   1.000000   1.000000
   10      -13.396674    -13.386322   1.000000   1.000000
   11       -5.231316     -1.844902   1.000000   1.000000
   12       -5.231316     -1.655592   1.000000   1.000000
   13       -5.228988     -1.655593   1.000000   1.000000
   14       -4.408152      0.618973   1.000000   1.000000
   15       -4.408152      0.618972   1.000000   1.000000
   16       -2.118288      0.809696   1.000000   1.000000
   17       -1.646065      0.962735   1.000000   1.000000
   18       -1.646065      1.125161   1.000000   1.000000
   19        0.329797      1.125162   1.000000   1.000000
   20        0.329798      3.125497   1.000000   0.000000
   21        0.505877      3.161755   1.000000   0.000000
   22        0.559920      3.161755   1.000000   0.000000
   23        0.941107      3.507579   1.000000   0.000000
   24        0.941107      3.507579   1.000000   0.000000
   25        6.726987      7.022729   0.000000   0.000000
   26        7.270065      7.314178   0.000000   0.000000
   27        7.270097      7.314190   0.000000   0.000000
   28        9.249080      9.449289   0.000000   0.000000
 
  0.2500000E+00  0.8333333E-01  0.8333333E-01  0.1111111E+00
    1      -55.642499    -51.142745   1.000000   1.000000
    2      -55.642191    -51.142326   1.000000   1.000000
    3      -55.642083    -51.142231   1.000000   1.000000
    4      -31.441696    -31.441122   1.000000   1.000000
    5      -15.686878    -15.345622   1.000000   1.000000
    6      -14.831332    -14.393881   1.000000   1.000000
    7      -14.740188    -14.196814   1.000000   1.000000
    8      -13.435005    -13.422737   1.000000   1.000000
    9      -13.403999    -13.384169   1.000000   1.000000
   10      -13.256657    -13.194517   1.000000   1.000000
   11       -5.309749     -2.154522   1.000000   1.000000
   12       -5.302762     -1.615840   1.000000   1.000000
   13       -5.230188     -1.600152   1.000000   1.000000
   14       -5.204676     -0.064403   1.000000   1.000000
   15       -4.406237      0.095595   1.000000   1.000000
   16       -2.140282      0.515302   1.000000   1.000000
   17       -1.561542      0.859049   1.000000   1.000000
   18       -0.962669      0.867688   1.000000   1.000000
   19        0.044529      0.995856   1.000000   1.000000
   20        0.117009      3.167409   1.000000   0.000000
   21        0.311335      3.458173   1.000000   0.000000
   22        0.513932      3.569899   1.000000   0.000000
   23        0.849338      3.620126   1.000000   0.000000
   24        0.990812      4.181351   1.044265   0.000000
   25        7.618041      7.833479   0.000000   0.000000
   26        7.824387      7.907307   0.000000   0.000000
   27        7.976364      8.116570   0.000000   0.000000
   28        9.490842      9.491469   0.000000   0.000000
 
  0.4166667E+00  0.8333333E-01  0.8333333E-01  0.1111111E+00
    1      -55.642674    -51.143114   1.000000   1.000000
    2      -55.642253    -51.142337   1.000000   1.000000
    3      -55.642178    -51.142277   1.000000   1.000000
    4      -31.437085    -31.436562   1.000000   1.000000
    5      -15.697554    -15.360433   1.000000   1.000000
    6      -14.834843    -14.471634   1.000000   1.000000
    7      -14.720149    -14.166769   1.000000   1.000000
    8      -13.436706    -13.433324   1.000000   1.000000
    9      -13.384653    -13.367818   1.000000   1.000000
   10      -13.136058    -13.056229   1.000000   1.000000
   11       -5.827342     -2.424768   1.000000   1.000000
   12       -5.382146     -1.565241   1.000000   1.000000
   13       -5.369653     -1.530041   1.000000   1.000000
   14       -5.230117     -0.663003   1.000000   1.000000
   15       -4.405165     -0.271160   1.000000   1.000000
   16       -2.055666      0.340934   1.000000   1.000000
   17       -1.493554      0.661335   1.000000   1.000000
   18       -0.790355      0.663460   1.000000   1.000000
   19       -0.158347      0.892402   1.000000   1.000000
   20       -0.010726      3.188632   1.000000   0.000000
   21        0.413492      3.483880   1.000000   0.000000
   22        0.538929      3.937362   1.000000   0.000000
   23        0.696083      3.952057   1.000000   0.000000
   24        0.862035      4.607394   1.125047   0.000000
   25        8.408693      8.526643   0.000000   0.000000
   26        8.438315      8.550425   0.000000   0.000000
   27        9.317902      9.602642   0.000000   0.000000
   28        9.504625      9.730495   0.000000   0.000000
 
  0.2500000E+00  0.2500000E+00  0.8333333E-01  0.1111111E+00
    1      -55.642423    -51.142675   1.000000   1.000000
    2      -55.642285    -51.142606   1.000000   1.000000
    3      -55.642188    -51.142298   1.000000   1.000000
    4      -31.437296    -31.436764   1.000000   1.000000
    5      -15.593144    -15.261202   1.000000   1.000000
    6      -14.900920    -14.505938   1.000000   1.000000
    7      -14.748502    -14.244315   1.000000   1.000000
    8      -13.427846    -13.416679   1.000000   1.000000
    9      -13.333110    -13.258838   1.000000   1.000000
   10      -13.243454    -13.200447   1.000000   1.000000
   11       -5.404222     -2.444345   1.000000   1.000000
   12       -5.399349     -1.634766   1.000000   1.000000
   13       -5.312317     -1.516828   1.000000   1.000000
   14       -5.306398     -0.781663   1.000000   1.000000
   15       -4.925823     -0.010863   1.000000   1.000000
   16       -2.317744      0.059514   1.000000   1.000000
   17       -1.192436      0.748284   1.000000   1.000000
   18       -0.421582      0.770966   1.000000   1.000000
   19       -0.419221      1.218504   1.000000   1.011084
   20       -0.059403      3.526791   1.000000   0.000000
   21        0.223546      3.620650   1.000000   0.000000
   22        0.684163      3.711160   1.000000   0.000000
   23        0.779803      3.831857   1.000000   0.000000
   24        1.381886      4.712341   0.765347   0.000000
   25        8.192132      8.297796   0.000000   0.000000
   26        8.250023      8.484497   0.000000   0.000000
   27        8.505620      8.568713   0.000000   0.000000
   28        9.769414      9.894727   0.000000   0.000000
 
  0.4166667E+00  0.2500000E+00  0.8333333E-01  0.2222222E+00
    1      -55.642527    -51.143007   1.000000   1.000000
    2      -55.642249    -51.142565   1.000000   1.000000
    3      -55.642193    -51.142273   1.000000   1.000000
    4      -31.432882    -31.432394   1.000000   1.000000
    5      -15.519890    -15.185927   1.000000   1.000000
    6      -14.934490    -14.603068   1.000000   1.000000
    7      -14.749009    -14.247704   1.000000   1.000000
    8      -13.433578    -13.429493   1.000000   1.000000
    9      -13.303482    -13.250651   1.000000   1.000000
   10      -13.192986    -13.119116   1.000000   1.000000
   11       -5.875321     -2.715533   1.000000   1.000000
   12       -5.495687     -1.654274   1.000000   1.000000
   13       -5.383044     -1.399776   1.000000   1.000000
   14       -5.314618     -1.300305   1.000000   1.000000
   15       -5.051950     -0.376689   1.000000   1.000000
   16       -2.278869      0.060239   1.000000   1.000000
   17       -1.001528      0.501693   1.000000   1.000000
   18       -0.787425      0.705632   1.000000   1.000000
   19       -0.213603      1.305914   1.000000   0.947098
   20       -0.117962      3.582567   1.000000   0.000000
   21        0.341505      3.828308   1.000000   0.000000
   22        0.602739      3.947288   1.000000   0.000000
   23        0.884195      4.002353   1.000000   0.000000
   24        1.577686      5.212853   0.220464   0.000000
   25        8.723586      8.835545   0.000000   0.000000
   26        8.955176      9.101600   0.000000   0.000000
   27        9.236764      9.346144   0.000000   0.000000
   28        9.871180      9.992582   0.000000   0.000000
 
  0.4166667E+00  0.4166667E+00  0.8333333E-01  0.1111111E+00
    1      -55.642585    -51.143041   1.000000   1.000000
    2      -55.642539    -51.143009   1.000000   1.000000
    3      -55.642222    -51.142289   1.000000   1.000000
    4      -31.428675    -31.428224   1.000000   1.000000
    5      -15.265948    -14.926556   1.000000   1.000000
    6      -15.023220    -14.719166   1.000000   1.000000
    7      -14.864156    -14.422951   1.000000   1.000000
    8      -13.416297    -13.415503   1.000000   1.000000
    9      -13.250059    -13.170084   1.000000   1.000000
   10      -13.231571    -13.161077   1.000000   1.000000
   11       -6.037049     -3.033242   1.000000   1.000000
   12       -5.608664     -1.741175   1.000000   1.000000
   13       -5.496866     -1.731098   1.000000   1.000000
   14       -5.393827     -1.175390   1.000000   1.000000
   15       -5.392068     -0.429946   1.000000   1.000000
   16       -2.291419     -0.349176   1.000000   1.000000
   17       -0.934207      0.543439   1.000000   1.000000
   18       -0.632687      0.589951   1.000000   1.000000
   19       -0.145008      1.671600   1.000000  -0.002802
   20       -0.140897      3.882414   1.000000   0.000000
   21        0.298250      3.953449   1.000000   0.000000
   22        0.402413      3.967288   1.000000   0.000000
   23        1.186212      4.132432   1.000000   0.000000
   24        2.152003      5.852307  -0.026532   0.000000
   25        8.861094      8.936723   0.000000   0.000000
   26        9.160104      9.270555   0.000000   0.000000
   27        9.846164      9.987129   0.000000   0.000000
   28        9.909323     10.019406   0.000000   0.000000
 
  0.2500000E+00  0.2500000E+00  0.2500000E+00  0.3703704E-01
    1      -55.642320    -51.142599   1.000000   1.000000
    2      -55.642262    -51.142570   1.000000   1.000000
    3      -55.642262    -51.142570   1.000000   1.000000
    4      -31.433062    -31.432570   1.000000   1.000000
    5      -15.476883    -15.155416   1.000000   1.000000
    6      -14.830350    -14.411109   1.000000   1.000000
    7      -14.830350    -14.411109   1.000000   1.000000
    8      -13.411187    -13.360565   1.000000   1.000000
    9      -13.411187    -13.360565   1.000000   1.000000
   10      -13.218520    -13.173111   1.000000   1.000000
   11       -5.422794     -2.708654   1.000000   1.000000
   12       -5.407234     -1.594579   1.000000   1.000000
   13       -5.407234     -1.594581   1.000000   1.000000
   14       -5.375615     -0.885883   1.000000   1.000000
   15       -5.375615     -0.555133   1.000000   1.000000
   16       -2.981971     -0.555128   1.000000   1.000000
   17       -0.592056      1.017006   1.000000   1.002680
   18       -0.345283      1.017011   1.000000   1.003778
   19       -0.345284      1.344564   1.000000   0.923082
   20        0.048366      3.721188   1.000000   0.000000
   21        0.048365      3.791987   1.000000   0.000000
   22        0.872416      3.791988   1.000000   0.000000
   23        1.333180      4.696278   0.982524   0.000000
   24        1.333181      4.696279   0.640908   0.000000
   25        8.374989      8.547971   0.000000   0.000000
   26        8.614241      8.708052   0.000000   0.000000
   27        8.619071      8.710575   0.000000   0.000000
   28        9.783538      9.907862   0.000000   0.000000
 
  0.4166667E+00  0.2500000E+00  0.2500000E+00  0.1111111E+00
    1      -55.642545    -51.143009   1.000000   1.000000
    2      -55.642370    -51.142654   1.000000   1.000000
    3      -55.642345    -51.142618   1.000000   1.000000
    4      -31.428822    -31.428369   1.000000   1.000000
    5      -15.354185    -15.026662   1.000000   1.000000
    6      -14.912896    -14.578013   1.000000   1.000000
    7      -14.751181    -14.292936   1.000000   1.000000
    8      -13.498384    -13.486112   1.000000   1.000000
    9      -13.336108    -13.276569   1.000000   1.000000
   10      -13.252802    -13.196552   1.000000   1.000000
   11       -5.901026     -2.988408   1.000000   1.000000
   12       -5.505716     -1.646245   1.000000   1.000000
   13       -5.455334     -1.539337   1.000000   1.000000
   14       -5.395237     -1.290464   1.000000   1.000000
   15       -5.393070     -0.896073   1.000000   1.000000
   16       -3.177157     -0.557766   1.000000   1.000000
   17       -0.732772      1.035226   1.000000   1.010414
   18       -0.355234      1.103329   1.000000   1.009579
   19       -0.277779      1.423330   1.000000   0.604052
   20        0.049627      3.797770   1.000000   0.000000
   21        0.640650      4.011298   1.000000   0.000000
   22        0.992840      4.043453   1.000000   0.000000
   23        1.244174      4.662945   0.972005   0.000000
   24        1.656438      5.344626   0.035389   0.000000
   25        8.718897      8.866471   0.000000   0.000000
   26        8.930099      9.059502   0.000000   0.000000
   27        9.012109      9.108359   0.000000   0.000000
   28        9.530080      9.626060   0.000000   0.000000
 
  0.4166667E+00  0.4166667E+00  0.2500000E+00  0.1111111E+00
    1      -55.642478    -51.142947   1.000000   1.000000
    2      -55.642436    -51.142919   1.000000   1.000000
    3      -55.642169    -51.142485   1.000000   1.000000
    4      -31.424751    -31.424332   1.000000   1.000000
    5      -15.118456    -14.787297   1.000000   1.000000
    6      -14.913526    -14.587279   1.000000   1.000000
    7      -14.801178    -14.385842   1.000000   1.000000
    8      -13.510265    -13.503206   1.000000   1.000000
    9      -13.392552    -13.333033   1.000000   1.000000
   10      -13.331903    -13.276348   1.000000   1.000000
   11       -6.035425     -3.309853   1.000000   1.000000
   12       -5.712644     -1.721555   1.000000   1.000000
   13       -5.572573     -1.518835   1.000000   1.000000
   14       -5.466129     -1.500081   1.000000   1.000000
   15       -5.463010     -0.919601   1.000000   1.000000
   16       -3.500867     -0.906962   1.000000   1.000000
   17       -0.714930      1.205912   1.000000   0.999305
   18       -0.346521      1.239905   1.000000   0.992735
   19       -0.329823      1.701924   1.000000  -0.060231
   20        0.622950      4.050323   1.000000   0.000000
   21        0.788246      4.067257   1.000000   0.000000
   22        1.216384      4.175172   1.000000   0.000000
   23        1.249757      4.928811   0.893568   0.000000
   24        2.146683      5.845867  -0.012810   0.000000
   25        8.523345      8.637852   0.000000   0.000000
   26        8.832283      8.957694   0.000000   0.000000
   27        8.895820      9.032933   0.000000   0.000000
   28        9.736768      9.807691   0.000000   0.000000
 
  0.4166667E+00  0.4166667E+00  0.4166667E+00  0.3703704E-01
    1      -55.642511    -51.142955   1.000000   1.000000
    2      -55.642511    -51.142955   1.000000   1.000000
    3      -55.642366    -51.142850   1.000000   1.000000
    4      -31.420837    -31.420453   1.000000   1.000000
    5      -14.916345    -14.578422   1.000000   1.000000
    6      -14.781669    -14.411524   1.000000   1.000000
    7      -14.781669    -14.411524   1.000000   1.000000
    8      -13.559192    -13.541869   1.000000   1.000000
    9      -13.559192    -13.541869   1.000000   1.000000
   10      -13.479385    -13.444231   1.000000   1.000000
   11       -6.033809     -3.646674   1.000000   1.000000
   12       -6.033808     -1.709749   1.000000   1.000000
   13       -5.547006     -1.709748   1.000000   1.000000
   14       -5.528857     -1.298928   1.000000   1.000000
   15       -5.528856     -1.186544   1.000000   1.000000
   16       -4.027552     -1.186543   1.000000   1.000000
   17       -0.503766      1.655979   1.000000   0.300884
   18       -0.401181      1.655979   1.000000   0.251609
   19       -0.401181      1.759718   1.000000  -0.021359
   20        1.161296      4.208466   1.000000   0.000000
   21        1.161296      4.224873   1.000000   0.000000
   22        1.269281      4.224874   1.000000   0.000000
   23        2.128379      5.831848  -0.169130   0.000000
   24        2.128379      5.831879  -0.001600   0.000000
   25        8.157195      8.269767   0.000000   0.000000
   26        8.258731      8.369158   0.000000   0.000000
   27        8.258754      8.369464   0.000000   0.000000
   28       10.432706     10.459191   0.000000   0.000000
