       N       E                     dE             d eps       ncg     rms          rms(c)
DAV:   1     0.311278556765E+03    0.31128E+03   -0.17320E+04  1232   0.114E+03
DAV:   2    -0.184498171004E+02   -0.32973E+03   -0.32002E+03  1140   0.383E+02
DAV:   3    -0.364932055909E+02   -0.18043E+02   -0.17844E+02  1556   0.928E+01
DAV:   4    -0.370680716720E+02   -0.57487E+00   -0.57151E+00  1724   0.125E+01
DAV:   5    -0.370773452103E+02   -0.92735E-02   -0.92437E-02  1512   0.130E+00    0.287E+01
RMM:   6    -0.444858138736E+02   -0.74085E+01   -0.13574E+02  1244   0.913E+01    0.468E+01
RMM:   7    -0.322282944013E+02    0.12258E+02   -0.35010E+01  1135   0.417E+01    0.172E+01
RMM:   8    -0.317757162477E+02    0.45258E+00   -0.66963E-01  1199   0.598E+00    0.109E+01
RMM:   9    -0.310047998354E+02    0.77092E+00   -0.15698E+00  1156   0.865E+00    0.498E+00
RMM:  10    -0.310184196988E+02   -0.13620E-01   -0.83309E-01  1161   0.600E+00    0.191E+00
RMM:  11    -0.310396990626E+02   -0.21279E-01   -0.41451E-02  1141   0.133E+00    0.147E+00
RMM:  12    -0.310479524804E+02   -0.82534E-02   -0.21680E-02  1061   0.910E-01    0.992E-01
RMM:  13    -0.310497084927E+02   -0.17560E-02   -0.71194E-02  1071   0.172E+00    0.409E-01
RMM:  14    -0.310487462347E+02    0.96226E-03   -0.28618E-03   781   0.332E-01
   1 F= -.31048746E+02 E0= -.31048746E+02  d E =-.310487E+02  mag=     4.8379
