 vasp.5.4.1 24Jun15 (build Jan 06 2016 13:10:00) complex                        
  
 executed on           IFC91_ompi date 2016.02.25  14:51:47
 running on    8 total cores
 distrk:  each k-point on    8 cores,    1 groups
 distr:  one band on NCORES_PER_BAND=   4 cores,    2 groups


--------------------------------------------------------------------------------------------------------


 INCAR:
 POTCAR:    PAW Sr                                
 POTCAR:    PAW Fe                                
 POTCAR:    PAW O_s                               
 POTCAR:    PAW Sr                                
   VRHFIN =Sr: 4s4p5s                                                           
   LEXCH  = 91                                                                  
   EATOM  =   843.6740 eV,   62.0083 Ry                                         
                                                                                
   TITEL  = PAW Sr                                                              
   LULTRA =        F    use ultrasoft PP ?                                      
   IUNSCR =        1    unscreen: 0-lin 1-nonlin 2-no                           
   RPACOR =    2.200    partial core radius                                     
   POMASS =   87.620; ZVAL   =   10.000    mass and valenz                      
   RCORE  =    2.500    outmost cutoff radius                                   
   RWIGS  =    4.040; RWIGS  =    2.138    wigner-seitz radius (au A)           
   ENMAX  =  226.196; ENMIN  =  169.647 eV                                      
   RCLOC  =    2.201    cutoff for local pot                                    
   LCOR   =        T    correct aug charges                                     
   LPAW   =        T    paw PP                                                  
   EAUG   =  366.804                                                            
   DEXC   =     .000                                                            
   RMAX   =    3.066    core radius for proj-oper                               
   RDEP   =    2.562    core radius for depl-charge                             
   QCUT   =   -4.077; QGAM   =    8.155    optimization parameters              
                                                                                
   Description                                                                  
     l     E      TYP  RCUT    TYP  RCUT                                        
     0   .000     23  2.500                                                     
     0   .000     23  2.500                                                     
     1   .000     23  2.500                                                     
     1   .000     23  2.500                                                     
     2   .000     23  2.500                                                     
     2   .000     23  2.500                                                     
  local pseudopotential read in
  partial core-charges read in
  atomic valenz-charges read in
  non local Contribution for L=           0  read in
    real space projection operators read in
  non local Contribution for L=           0  read in
    real space projection operators read in
  non local Contribution for L=           1  read in
    real space projection operators read in
  non local Contribution for L=           1  read in
    real space projection operators read in
  non local Contribution for L=           2  read in
    real space projection operators read in
  non local Contribution for L=           2  read in
    real space projection operators read in
    PAW grid and wavefunctions read in
 
   number of l-projection  operators is LMAX  =           6
   number of lm-projection operators is LMMAX =          18
 
 POTCAR:    PAW Fe                                
   VRHFIN =Fe:  3pd7s1                                                          
   LEXCH  = 91                                                                  
   EATOM  =  2459.3729 eV,  180.7588 Ry                                         
                                                                                
   TITEL  = PAW Fe                                                              
   LULTRA =        F    use ultrasoft PP ?                                      
   IUNSCR =        1    unscreen: 0-lin 1-nonlin 2-no                           
   RPACOR =    1.750    partial core radius                                     
   POMASS =   55.847; ZVAL   =   14.000    mass and valenz                      
   RCORE  =    2.200    outmost cutoff radius                                   
   RWIGS  =    2.200; RWIGS  =    1.164    wigner-seitz radius (au A)           
   ENMAX  =  293.258; ENMIN  =  219.944 eV                                      
   RCLOC  =    1.701    cutoff for local pot                                    
   LCOR   =        T    correct aug charges                                     
   LPAW   =        T    paw PP                                                  
   EAUG   =  578.342                                                            
   DEXC   =     .000                                                            
   RMAX   =    2.692    core radius for proj-oper                               
   RAUG   =    1.300    factor for augmentation sphere                          
   RDEP   =    2.296    core radius for depl-charge                             
   QCUT   =   -4.643; QGAM   =    9.285    optimization parameters              
                                                                                
   Description                                                                  
     l     E      TYP  RCUT    TYP  RCUT                                        
     1   .000     23  2.000                                                     
     1  -.400     23  2.000                                                     
     2   .000     23  2.200                                                     
     2   .000     23  2.200                                                     
     0   .000     23  2.000                                                     
     0  2.000     23  2.000                                                     
     3   .000      7   .000                                                     
  local pseudopotential read in
  partial core-charges read in
  atomic valenz-charges read in
  non local Contribution for L=           1  read in
    real space projection operators read in
  non local Contribution for L=           1  read in
    real space projection operators read in
  non local Contribution for L=           2  read in
    real space projection operators read in
  non local Contribution for L=           2  read in
    real space projection operators read in
  non local Contribution for L=           0  read in
    real space projection operators read in
  non local Contribution for L=           0  read in
    real space projection operators read in
    PAW grid and wavefunctions read in
 
   number of l-projection  operators is LMAX  =           6
   number of lm-projection operators is LMMAX =          18
 
 POTCAR:    PAW O_s                               
   VRHFIN =O: s2p4                                                              
   LEXCH  = 91                                                                  
   EATOM  =   433.0277 eV,   31.8266 Ry                                         
                                                                                
   TITEL  = PAW O_s                                                             
   LULTRA =        F    use ultrasoft PP ?                                      
   IUNSCR =        0    unscreen: 0-lin 1-nonlin 2-no                           
   RPACOR =     .000    partial core radius                                     
   POMASS =   16.000; ZVAL   =    6.000    mass and valenz                      
   RCORE  =    1.900    outmost cutoff radius                                   
   RWIGS  =    1.700; RWIGS  =     .900    wigner-seitz radius (au A)           
   ENMAX  =  250.000; ENMIN  =  202.667 eV                                      
   RCLOC  =    1.014    cutoff for local pot                                    
   LCOR   =        T    correct aug charges                                     
   LPAW   =        T    paw PP                                                  
   EAUG   =  412.352                                                            
   DEXC   =     .000                                                            
   RMAX   =    2.805    core radius for proj-oper                               
   RDEP   =    2.002    core radius for depl-charge                             
   QCUT   =   -4.457; QGAM   =    8.913    optimization parameters              
                                                                                
   Description                                                                  
     l     E      TYP  RCUT    TYP  RCUT                                        
     0   .000     23  1.500                                                     
     0   .000     23  1.500                                                     
     1   .000     23  1.900                                                     
     1   .000     23  1.900                                                     
     2   .000      7   .000                                                     
  local pseudopotential read in
  atomic valenz-charges read in
  non local Contribution for L=           0  read in
    real space projection operators read in
  non local Contribution for L=           0  read in
    real space projection operators read in
  non local Contribution for L=           1  read in
    real space projection operators read in
  non local Contribution for L=           1  read in
    real space projection operators read in
    PAW grid and wavefunctions read in
 
   number of l-projection  operators is LMAX  =           4
   number of lm-projection operators is LMMAX =           8
 

 ----------------------------------------------------------------------------- 
|                                                                             |
|  ADVICE TO THIS USER RUNNING 'VASP/VAMP'   (HEAR YOUR MASTER'S VOICE ...):  |
|                                                                             |
|      You have a (more or less) 'small supercell' and for smaller cells      |
|      it is recommended  to use the reciprocal-space projection scheme!      |
|      The real space optimization is not  efficient for small cells and it   |
|      is also less accurate ...                                              |
|      Therefore set LREAL=.FALSE. in the  INCAR file                         |
|                                                                             |
 ----------------------------------------------------------------------------- 

 Optimization of the real space projectors (new method)

 maximal supplied QI-value         = 15.12
 optimisation between [QCUT,QGAM] = [  8.77, 17.69] = [ 21.53, 87.61] Ry 
 Optimized for a Real-space Cutoff    1.69 Angstroem

   l    n(q)    QCUT    max X(q) W(low)/X(q) W(high)/X(q)  e(spline) 
   0      9     8.768     6.754    0.18E-04    0.21E-05    0.67E-08
   0      9     8.768    11.260    0.63E-04    0.78E-05    0.39E-07
   1      8     8.768     3.800    0.94E-05    0.21E-04    0.25E-07
   1      8     8.768    42.936    0.24E-03    0.36E-03    0.23E-06
   2      8     8.768     4.943    0.61E-04    0.13E-04    0.38E-07
   2      8     8.768    88.807    0.23E-03    0.32E-03    0.20E-06
 Optimization of the real space projectors (new method)

 maximal supplied QI-value         = 17.01
 optimisation between [QCUT,QGAM] = [  8.84, 17.69] = [ 21.90, 87.61] Ry 
 Optimized for a Real-space Cutoff    1.55 Angstroem

   l    n(q)    QCUT    max X(q) W(low)/X(q) W(high)/X(q)  e(spline) 
   1      8     8.844     4.548    0.31E-04    0.33E-04    0.33E-07
   1      8     8.844     5.232    0.39E-03    0.50E-04    0.28E-06
   2      7     8.844     3.957    0.38E-04    0.11E-03    0.44E-07
   2      7     8.844    29.816    0.43E-03    0.99E-03    0.21E-06
   0      8     8.844    23.438    0.18E-04    0.19E-04    0.85E-08
   0      8     8.844    39.418    0.66E-04    0.15E-03    0.47E-07
 Optimization of the real space projectors (new method)

 maximal supplied QI-value         = 19.84
 optimisation between [QCUT,QGAM] = [  8.73, 17.66] = [ 21.34, 87.33] Ry 
 Optimized for a Real-space Cutoff    1.46 Angstroem

   l    n(q)    QCUT    max X(q) W(low)/X(q) W(high)/X(q)  e(spline) 
   0      8     8.731     3.485    0.23E-04    0.53E-05    0.51E-07
   0      8     8.731    30.133    0.28E-03    0.36E-03    0.17E-06
   1      7     8.731     3.755    0.11E-03    0.11E-03    0.69E-07
   1      7     8.731    24.805    0.50E-03    0.59E-03    0.12E-06
  PAW Sr                                :
 energy of atom  1       EATOM= -843.6740
 kinetic energy error for atom=    0.0094 (will be added to EATOM!!)
  PAW Fe                                :
 energy of atom  2       EATOM=-2459.3729
 kinetic energy error for atom=    0.0682 (will be added to EATOM!!)
  PAW O_s                               :
 energy of atom  3       EATOM= -433.0277
 kinetic energy error for atom=    0.0347 (will be added to EATOM!!)
 
 
 POSCAR: Sr1 Fe1 O3                              
  positions in direct lattice
  velocities in cartesian coordinates
 exchange correlation table for  LEXCH =        7
   RHO(1)=    0.500       N(1)  =     2000
   RHO(2)=  100.500       N(2)  =     4000

 VTST: version 3.1, (03/28/14)

 CHAIN: initializing optimizer
 
 OPT: Using VASP QUASI-newton optimizer
 CHAIN: Read ICHAIN            0
 
 POSCAR: Sr1 Fe1 O3                              
  positions in direct lattice
  velocities in cartesian coordinates
 


--------------------------------------------------------------------------------------------------------


 ion  position               nearest neighbor table
   1  0.500  0.500  0.500-   3 2.90   4 2.90   5 2.90   3 2.90   4 2.90   3 2.90   5 2.90   3 2.90
                             4 2.90   5 2.90   4 2.90   5 2.90   2 3.55   2 3.55   2 3.55   2 3.55
   2  0.000  0.000  0.000-   3 2.05   4 2.05   5 2.05   5 2.05   4 2.05   3 2.05   1 3.55   1 3.55
                             1 3.55   1 3.55   1 3.55   1 3.55   1 3.55   1 3.55
   3  0.500  0.000  0.000-   2 2.05   2 2.05   1 2.90   1 2.90   1 2.90   1 2.90
   4  0.000  0.500  0.000-   2 2.05   2 2.05   1 2.90   1 2.90   1 2.90   1 2.90
   5  0.000  0.000  0.500-   2 2.05   2 2.05   1 2.90   1 2.90   1 2.90   1 2.90
 
  LATTYP: Found a simple cubic cell.
 ALAT       =     4.1000000000
  
  Lattice vectors:
  
 A1 = (   4.1000000000,   0.0000000000,   0.0000000000)
 A2 = (   0.0000000000,   4.1000000000,   0.0000000000)
 A3 = (   0.0000000000,   0.0000000000,   4.1000000000)


Analysis of symmetry for initial positions (statically):
=====================================================================
 Subroutine PRICEL returns:
 Original cell was already a primitive cell.
 

 Routine SETGRP: Setting up the symmetry group for a 
 simple cubic supercell.


 Subroutine GETGRP returns: Found 48 space group operations
 (whereof 48 operations were pure point group operations)
 out of a pool of 48 trial point group operations.


The static configuration has the point symmetry O_h .


Analysis of symmetry for dynamics (positions and initial velocities):
=====================================================================
 Subroutine PRICEL returns:
 Original cell was already a primitive cell.
 

 Routine SETGRP: Setting up the symmetry group for a 
 simple cubic supercell.


 Subroutine GETGRP returns: Found 48 space group operations
 (whereof 48 operations were pure point group operations)
 out of a pool of 48 trial point group operations.


The dynamic configuration has the point symmetry O_h .


Analysis of structural, dynamic, and magnetic symmetry:
=====================================================================
 Subroutine PRICEL returns:
 Original cell was already a primitive cell.
 

 Routine SETGRP: Setting up the symmetry group for a 
 simple cubic supercell.


 Subroutine GETGRP returns: Found 48 space group operations
 (whereof 48 operations were pure point group operations)
 out of a pool of 48 trial point group operations.


The magnetic configuration has the point symmetry O_h .


 Subroutine INISYM returns: Found 48 space group operations
 (whereof 48 operations are pure point group operations),
 and found     1 'primitive' translations

 
 
 KPOINTS: Automatic Mesh                          

Automatic generation of k-mesh.
Space group operators:
 irot       det(A)        alpha          n_x          n_y          n_z        tau_x        tau_y        tau_z
    1     1.000000     0.000000     1.000000     0.000000     0.000000     0.000000     0.000000     0.000000
    2    -1.000000     0.000000     1.000000     0.000000     0.000000     0.000000     0.000000     0.000000
    3     1.000000   120.000000    -0.577350    -0.577350    -0.577350     0.000000     0.000000     0.000000
    4    -1.000000   120.000000    -0.577350    -0.577350    -0.577350     0.000000     0.000000     0.000000
    5     1.000000   120.000000     0.577350     0.577350     0.577350     0.000000     0.000000     0.000000
    6    -1.000000   120.000000     0.577350     0.577350     0.577350     0.000000     0.000000     0.000000
    7     1.000000    90.000000     0.000000     0.000000    -1.000000     0.000000     0.000000     0.000000
    8    -1.000000    90.000000     0.000000     0.000000    -1.000000     0.000000     0.000000     0.000000
    9     1.000000   180.000000     0.000000     0.707107     0.707107     0.000000     0.000000     0.000000
   10    -1.000000   180.000000     0.000000     0.707107     0.707107     0.000000     0.000000     0.000000
   11     1.000000    90.000000     0.000000     1.000000     0.000000     0.000000     0.000000     0.000000
   12    -1.000000    90.000000     0.000000     1.000000     0.000000     0.000000     0.000000     0.000000
   13     1.000000   180.000000     0.000000     0.000000     1.000000     0.000000     0.000000     0.000000
   14    -1.000000   180.000000     0.000000     0.000000     1.000000     0.000000     0.000000     0.000000
   15     1.000000   120.000000    -0.577350     0.577350     0.577350     0.000000     0.000000     0.000000
   16    -1.000000   120.000000    -0.577350     0.577350     0.577350     0.000000     0.000000     0.000000
   17     1.000000   120.000000    -0.577350     0.577350    -0.577350     0.000000     0.000000     0.000000
   18    -1.000000   120.000000    -0.577350     0.577350    -0.577350     0.000000     0.000000     0.000000
   19     1.000000    90.000000     0.000000     0.000000     1.000000     0.000000     0.000000     0.000000
   20    -1.000000    90.000000     0.000000     0.000000     1.000000     0.000000     0.000000     0.000000
   21     1.000000    90.000000    -1.000000     0.000000     0.000000     0.000000     0.000000     0.000000
   22    -1.000000    90.000000    -1.000000     0.000000     0.000000     0.000000     0.000000     0.000000
   23     1.000000   180.000000     0.707107     0.000000     0.707107     0.000000     0.000000     0.000000
   24    -1.000000   180.000000     0.707107     0.000000     0.707107     0.000000     0.000000     0.000000
   25     1.000000   120.000000     0.577350    -0.577350     0.577350     0.000000     0.000000     0.000000
   26    -1.000000   120.000000     0.577350    -0.577350     0.577350     0.000000     0.000000     0.000000
   27     1.000000   120.000000    -0.577350    -0.577350     0.577350     0.000000     0.000000     0.000000
   28    -1.000000   120.000000    -0.577350    -0.577350     0.577350     0.000000     0.000000     0.000000
   29     1.000000   180.000000     1.000000     0.000000     0.000000     0.000000     0.000000     0.000000
   30    -1.000000   180.000000     1.000000     0.000000     0.000000     0.000000     0.000000     0.000000
   31     1.000000    90.000000     0.000000    -1.000000     0.000000     0.000000     0.000000     0.000000
   32    -1.000000    90.000000     0.000000    -1.000000     0.000000     0.000000     0.000000     0.000000
   33     1.000000   180.000000     0.707107     0.707107     0.000000     0.000000     0.000000     0.000000
   34    -1.000000   180.000000     0.707107     0.707107     0.000000     0.000000     0.000000     0.000000
   35     1.000000    90.000000     1.000000     0.000000     0.000000     0.000000     0.000000     0.000000
   36    -1.000000    90.000000     1.000000     0.000000     0.000000     0.000000     0.000000     0.000000
   37     1.000000   120.000000     0.577350    -0.577350    -0.577350     0.000000     0.000000     0.000000
   38    -1.000000   120.000000     0.577350    -0.577350    -0.577350     0.000000     0.000000     0.000000
   39     1.000000   180.000000     0.000000     1.000000     0.000000     0.000000     0.000000     0.000000
   40    -1.000000   180.000000     0.000000     1.000000     0.000000     0.000000     0.000000     0.000000
   41     1.000000   120.000000     0.577350     0.577350    -0.577350     0.000000     0.000000     0.000000
   42    -1.000000   120.000000     0.577350     0.577350    -0.577350     0.000000     0.000000     0.000000
   43     1.000000   180.000000     0.000000    -0.707107     0.707107     0.000000     0.000000     0.000000
   44    -1.000000   180.000000     0.000000    -0.707107     0.707107     0.000000     0.000000     0.000000
   45     1.000000   180.000000     0.707107    -0.707107     0.000000     0.000000     0.000000     0.000000
   46    -1.000000   180.000000     0.707107    -0.707107     0.000000     0.000000     0.000000     0.000000
   47     1.000000   180.000000     0.707107     0.000000    -0.707107     0.000000     0.000000     0.000000
   48    -1.000000   180.000000     0.707107     0.000000    -0.707107     0.000000     0.000000     0.000000
 
 Subroutine IBZKPT returns following result:
 ===========================================
 
 Found     10 irreducible k-points:
 
 Following reciprocal coordinates:
            Coordinates               Weight
  0.083333  0.083333  0.083333      8.000000
  0.250000  0.083333  0.083333     24.000000
  0.416667  0.083333  0.083333     24.000000
  0.250000  0.250000  0.083333     24.000000
  0.416667  0.250000  0.083333     48.000000
  0.416667  0.416667  0.083333     24.000000
  0.250000  0.250000  0.250000      8.000000
  0.416667  0.250000  0.250000     24.000000
  0.416667  0.416667  0.250000     24.000000
  0.416667  0.416667  0.416667      8.000000
 
 Following cartesian coordinates:
            Coordinates               Weight
  0.020325  0.020325  0.020325      8.000000
  0.060976  0.020325  0.020325     24.000000
  0.101626  0.020325  0.020325     24.000000
  0.060976  0.060976  0.020325     24.000000
  0.101626  0.060976  0.020325     48.000000
  0.101626  0.101626  0.020325     24.000000
  0.060976  0.060976  0.060976      8.000000
  0.101626  0.060976  0.060976     24.000000
  0.101626  0.101626  0.060976     24.000000
  0.101626  0.101626  0.101626      8.000000
 
 TETIRR: Found     88 inequivalent tetrahedra from     1296


--------------------------------------------------------------------------------------------------------




 Dimension of arrays:
   k-points           NKPTS =     10   k-points in BZ     NKDIM =     10   number of bands    NBANDS=     28
   number of dos      NEDOS =    301   number of ions     NIONS =      5
   non local maximal  LDIM  =      6   non local SUM 2l+1 LMDIM =     18
   total plane-waves  NPLWV =   5832
   max r-space proj   IRMAX =   1764   max aug-charges    IRDMAX=   5161
   dimension x,y,z NGX =    18 NGY =   18 NGZ =   18
   dimension x,y,z NGXF=    36 NGYF=   36 NGZF=   36
   support grid    NGXF=    36 NGYF=   36 NGZF=   36
   ions per type =               1   1   3
 NGX,Y,Z   is equivalent  to a cutoff of   7.30,  7.30,  7.30 a.u.
 NGXF,Y,Z  is equivalent  to a cutoff of  14.60, 14.60, 14.60 a.u.


 I would recommend the setting:
   dimension x,y,z NGX =    17 NGY =   17 NGZ =   17
 SYSTEM =  unknown system                          
 POSCAR =  Sr1 Fe1 O3                              

 Startparameter for this run:
   NWRITE =      2    write-flag & timer
   PREC   = normal    normal or accurate (medium, high low for compatibility)
   ISTART =      0    job   : 0-new  1-cont  2-samecut
   ICHARG =      2    charge: 1-file 2-atom 10-const
   ISPIN  =      2    spin polarized calculation?
   LNONCOLLINEAR =      F non collinear calculations
   LSORBIT =      F    spin-orbit coupling
   INIWAV =      1    electr: 0-lowe 1-rand  2-diag
   LASPH  =      F    aspherical Exc in radial PAW
   METAGGA=      F    non-selfconsistent MetaGGA calc.

 Electronic Relaxation 1
   ENCUT  =  300.0 eV  22.05 Ry    4.70 a.u.   5.79  5.79  5.79*2*pi/ulx,y,z
   ENINI  =  300.0     initial cutoff
   ENAUG  =  578.3 eV  augmentation charge cutoff
   NELM   =    100;   NELMIN=  2; NELMDL= -5     # of ELM steps 
   EDIFF  = 0.1E-02   stopping-criterion for ELM
   LREAL  =      T    real-space projection
   NLSPLINE    = F    spline interpolate recip. space projectors
   LCOMPAT=      F    compatible to vasp.4.4
   GGA_COMPAT  = T    GGA compatible to vasp.4.4-vasp.4.6
   LMAXPAW     = -100 max onsite density
   LMAXMIX     =    4 max onsite mixed and CHGCAR
   VOSKOWN=      0    Vosko Wilk Nusair interpolation
   ROPT   =   -0.00050  -0.00050  -0.00050
 Ionic relaxation
   EDIFFG = -.1E-01   stopping-criterion for IOM
   NSW    =     99    number of steps for IOM
   NBLOCK =      1;   KBLOCK =     99    inner block; outer block 
   IBRION =      1    ionic relax: 0-MD 1-quasi-New 2-CG
   NFREE  =      0    steps in history (QN), initial steepest desc. (CG)
   ISIF   =      0    stress and relaxation
   IWAVPR =     11    prediction:  0-non 1-charg 2-wave 3-comb
   ISYM   =      2    0-nonsym 1-usesym 2-fastsym
   LCORR  =      T    Harris-Foulkes like correction to forces

   POTIM  = 0.5000    time-step for ionic-motion
   TEIN   =    0.0    initial temperature
   TEBEG  =    0.0;   TEEND  =   0.0 temperature during run
   SMASS  =  -3.00    Nose mass-parameter (am)
   estimated Nose-frequenzy (Omega)   =  0.10E-29 period in steps =****** mass=  -0.384E-27a.u.
   SCALEE = 1.0000    scale energy and forces
   NPACO  =    256;   APACO  = 16.0  distance and # of slots for P.C.
   PSTRESS=    0.0 pullay stress

  Mass of Ions in am
   POMASS =  87.62 55.85 16.00
  Ionic Valenz
   ZVAL   =  10.00 14.00  6.00
  Atomic Wigner-Seitz radii
   RWIGS  =  -1.00 -1.00 -1.00
  virtual crystal weights 
   VCA    =   1.00  1.00  1.00
   NELECT =      42.0000    total number of electrons
   NUPDOWN=      -1.0000    fix difference up-down

 DOS related values:
   EMIN   =  10.00;   EMAX   =-10.00  energy-range for DOS
   EFERMI =   0.00
   ISMEAR =    -5;   SIGMA  =   0.05  broadening in eV -4-tet -1-fermi 0-gaus

 Electronic relaxation 2 (details)
   IALGO  =     68    algorithm
   LDIAG  =      T    sub-space diagonalisation (order eigenvalues)
   LSUBROT=      F    optimize rotation matrix (better conditioning)
   TURBO    =      0    0=normal 1=particle mesh
   IRESTART =      0    0=no restart 2=restart with 2 vectors
   NREBOOT  =      0    no. of reboots
   NMIN     =      0    reboot dimension
   EREF     =   0.00    reference energy to select bands
   IMIX   =      4    mixing-type and parameters
     AMIX     =   0.40;   BMIX     =  1.00
     AMIX_MAG =   1.60;   BMIX_MAG =  1.00
     AMIN     =   0.10
     WC   =   100.;   INIMIX=   1;  MIXPRE=   1;  MAXMIX= -45

 Intra band minimization:
   WEIMIN = 0.0010     energy-eigenvalue tresh-hold
   EBREAK =  0.89E-05  absolut break condition
   DEPER  =   0.30     relativ break condition  

   TIME   =   0.40     timestep for ELM

  volume/ion in A,a.u.               =      13.78        93.02
  Fermi-wavevector in a.u.,A,eV,Ry     =   1.387951  2.622847 26.210364  1.926407
  Thomas-Fermi vector in A             =   2.512123
 
 Write flags
   LWAVE  =      F    write WAVECAR
   LCHARG =      T    write CHGCAR
   LVTOT  =      F    write LOCPOT, total local potential
   LVHAR  =      F    write LOCPOT, Hartree potential only
   LELF   =      F    write electronic localiz. function (ELF)
   LORBIT =      0    0 simple, 1 ext, 2 COOP (PROOUT)


 Dipole corrections
   LMONO  =      F    monopole corrections only (constant potential shift)
   LDIPOL =      F    correct potential (dipole corrections)
   IDIPOL =      0    1-x, 2-y, 3-z, 4-all directions 
   EPSILON=  1.0000000 bulk dielectric constant

 LDA+U is selected, type is set to LDAUTYPE =  2
   angular momentum for each species LDAUL =     0    2    0
   U (eV)           for each species LDAUU =   0.0  5.3  0.0
   J (eV)           for each species LDAUJ =   0.0  0.0  0.0
 Exchange correlation treatment:
   GGA     =    --    GGA type
   LEXCH   =     7    internal setting for exchange type
   VOSKOWN=      0    Vosko Wilk Nusair interpolation
   LHFCALC =     F    Hartree Fock is set to
   LHFONE  =     F    Hartree Fock one center treatment
   AEXX    =    0.0000 exact exchange contribution

 Linear response parameters
   LEPSILON=     F    determine dielectric tensor
   LRPA    =     F    only Hartree local field effects (RPA)
   LNABLA  =     F    use nabla operator in PAW spheres
   LVEL    =     F    velocity operator in full k-point grid
   LINTERFAST=   F  fast interpolation
   KINTER  =     0    interpolate to denser k-point grid
   CSHIFT  =0.1000    complex shift for real part using Kramers Kronig
   OMEGAMAX=  -1.0    maximum frequency
   DEG_THRESHOLD= 0.2000000E-02 threshold for treating states as degnerate
   RTIME   =    0.100 relaxation time in fs

 Orbital magnetization related:
   ORBITALMAG=     F  switch on orbital magnetization
   LCHIMAG   =     F  perturbation theory with respect to B field
   DQ        =  0.001000  dq finite difference perturbation B field



--------------------------------------------------------------------------------------------------------


 quasi-Newton-method for relaxation of ions
 charge density and potential will be updated during run
 spin polarized calculation
 RMM-DIIS sequential band-by-band and
  variant of blocked Davidson during initial phase
 perform sub-space diagonalisation
    before iterative eigenvector-optimisation
 modified Broyden-mixing scheme, WC =      100.0
 initial mixing is a Kerker type mixing with AMIX =  0.4000 and BMIX =      1.0000
 Hartree-type preconditioning will be used
 using additional bands            7
 real space projection scheme for non local part
 use partial core corrections
 calculate Harris-corrections to forces 
   (improved forces if not selfconsistent)
 use gradient corrections 
 use of overlap-Matrix (Vanderbilt PP)
 Fermi weights with tetrahedron method with Bloechl corrections


--------------------------------------------------------------------------------------------------------


  energy-cutoff  :      300.00
  volume of cell :       68.92
      direct lattice vectors                 reciprocal lattice vectors
     4.100000000  0.000000000  0.000000000     0.243902439  0.000000000  0.000000000
     0.000000000  4.100000000  0.000000000     0.000000000  0.243902439  0.000000000
     0.000000000  0.000000000  4.100000000     0.000000000  0.000000000  0.243902439

  length of vectors
     4.100000000  4.100000000  4.100000000     0.243902439  0.243902439  0.243902439


 
 k-points in units of 2pi/SCALE and weight: Automatic Mesh                          
   0.02032520  0.02032520  0.02032520       0.037
   0.06097561  0.02032520  0.02032520       0.111
   0.10162602  0.02032520  0.02032520       0.111
   0.06097561  0.06097561  0.02032520       0.111
   0.10162602  0.06097561  0.02032520       0.222
   0.10162602  0.10162602  0.02032520       0.111
   0.06097561  0.06097561  0.06097561       0.037
   0.10162602  0.06097561  0.06097561       0.111
   0.10162602  0.10162602  0.06097561       0.111
   0.10162602  0.10162602  0.10162602       0.037
 
 k-points in reciprocal lattice and weights: Automatic Mesh                          
   0.08333333  0.08333333  0.08333333       0.037
   0.25000000  0.08333333  0.08333333       0.111
   0.41666667  0.08333333  0.08333333       0.111
   0.25000000  0.25000000  0.08333333       0.111
   0.41666667  0.25000000  0.08333333       0.222
   0.41666667  0.41666667  0.08333333       0.111
   0.25000000  0.25000000  0.25000000       0.037
   0.41666667  0.25000000  0.25000000       0.111
   0.41666667  0.41666667  0.25000000       0.111
   0.41666667  0.41666667  0.41666667       0.037
 
 position of ions in fractional coordinates (direct lattice) 
   0.50000000  0.50000000  0.50000000
   0.00000000  0.00000000  0.00000000
   0.50000000  0.00000000  0.00000000
   0.00000000  0.50000000  0.00000000
   0.00000000  0.00000000  0.50000000
 
 position of ions in cartesian coordinates  (Angst):
   2.05000000  2.05000000  2.05000000
   0.00000000  0.00000000  0.00000000
   2.05000000  0.00000000  0.00000000
   0.00000000  2.05000000  0.00000000
   0.00000000  0.00000000  2.05000000
 


--------------------------------------------------------------------------------------------------------


 k-point  1 :   0.0833 0.0833 0.0833  plane waves:     805
 k-point  2 :   0.2500 0.0833 0.0833  plane waves:     812
 k-point  3 :   0.4167 0.0833 0.0833  plane waves:     817
 k-point  4 :   0.2500 0.2500 0.0833  plane waves:     814
 k-point  5 :   0.4167 0.2500 0.0833  plane waves:     811
 k-point  6 :   0.4167 0.4167 0.0833  plane waves:     816
 k-point  7 :   0.2500 0.2500 0.2500  plane waves:     811
 k-point  8 :   0.4167 0.2500 0.2500  plane waves:     814
 k-point  9 :   0.4167 0.4167 0.2500  plane waves:     809
 k-point 10 :   0.4167 0.4167 0.4167  plane waves:     822

 maximum and minimum number of plane-waves per node :       210      198

 maximum number of plane-waves:       822
 maximum index in each direction: 
   IXMAX=    5   IYMAX=    5   IZMAX=    5
   IXMIN=   -6   IYMIN=   -6   IZMIN=   -6

 WARNING: aliasing errors must be expected set NGX to  24 to avoid them
 WARNING: aliasing errors must be expected set NGY to  24 to avoid them
 WARNING: aliasing errors must be expected set NGZ to  24 to avoid them
 aliasing errors are usually negligible using standard VASP settings
 and one can safely disregard these warnings

 real space projection operators:
  total allocation   :        625.12 KBytes
  max/ min on nodes  :        176.19        134.22


 parallel 3D FFT for wavefunctions:
    minimum data exchange during FFTs selected (reduces bandwidth)
 parallel 3D FFT for charge:
    minimum data exchange during FFTs selected (reduces bandwidth)


 total amount of memory used by VASP on root node    32469. kBytes
========================================================================

   base      :      30000. kBytes
   nonlr-proj:        369. kBytes
   fftplans  :        271. kBytes
   grid      :        728. kBytes
   one-center:         62. kBytes
   wavefun   :       1039. kBytes
 
     INWAV:  cpu time    0.0000: real time    0.0000
 Broyden mixing: mesh for mixing (old mesh)
   NGX = 11   NGY = 11   NGZ = 11
  (NGX  = 36   NGY  = 36   NGZ  = 36)
  gives a total of   1331 points

 initial charge density was supplied:
 charge density of overlapping atoms calculated
 number of electron      42.0000000 magnetization       5.0000000
 keeping initial charge density in first step


--------------------------------------------------------------------------------------------------------


 Maximum index for non-local projection operator          440
 Maximum index for augmentation-charges          595 (set IRDMAX)


--------------------------------------------------------------------------------------------------------


 First call to EWALD:  gamma=   0.432
 Maximum number of real-space cells 3x 3x 3
 Maximum number of reciprocal cells 3x 3x 3

 FEWALD executed in parallel
    FEWALD:  cpu time    0.0020: real time    0.0019


----------------------------------------- Iteration    1(   1)  ---------------------------------------


    POTLOK:  cpu time    0.0580: real time    0.0585
    SETDIJ:  cpu time    0.0130: real time    0.0124
atom =   1  type =  1  l = 0
 
 onsite density matrix
 
spin component  1
 
  1.1831
 
spin component  2
 
  0.9680
 
 occupancies and eigenvectors
 
  o =  0.9680  v =  0.0000  1.0000      0.0000  0.0000
  o =  1.1831  v =  1.0000  0.0000      0.0000  0.0000
atom =   2  type =  2  l = 2
 
 onsite density matrix
 
spin component  1
 
  0.6713  0.0000  0.0000  0.0000  0.0000
  0.0000  0.6713  0.0000  0.0000  0.0000
  0.0000  0.0000  0.6713  0.0000  0.0000
  0.0000  0.0000  0.0000  0.6713  0.0000
  0.0000  0.0000  0.0000  0.0000  0.6713
 
spin component  2
 
  0.5818  0.0000  0.0000  0.0000  0.0000
  0.0000  0.5818  0.0000  0.0000  0.0000
  0.0000  0.0000  0.5818  0.0000  0.0000
  0.0000  0.0000  0.0000  0.5818  0.0000
  0.0000  0.0000  0.0000  0.0000  0.5818
 
 occupancies and eigenvectors
 
  o =  0.5818  v =  0.0000  0.0000  0.0000  0.0000  0.0000  1.0000  0.0000  0.0000  0.0000  0.0000      0.0000  0.0000  0.0000  0.0000  0.0000  0.0000  0.0000  0.0000  0.0000  0.0000
  o =  0.5818  v =  0.0000  0.0000  0.0000  0.0000  0.0000  0.0000  1.0000  0.0000  0.0000  0.0000      0.0000  0.0000  0.0000  0.0000  0.0000  0.0000  0.0000  0.0000  0.0000  0.0000
  o =  0.5818  v =  0.0000  0.0000  0.0000  0.0000  0.0000  0.0000  0.0000  1.0000  0.0000  0.0000      0.0000  0.0000  0.0000  0.0000  0.0000  0.0000  0.0000  0.0000  0.0000  0.0000
  o =  0.5818  v =  0.0000  0.0000  0.0000  0.0000  0.0000  0.0000  0.0000  0.0000  1.0000  0.0000      0.0000  0.0000  0.0000  0.0000  0.0000  0.0000  0.0000  0.0000  0.0000  0.0000
  o =  0.5818  v =  0.0000  0.0000  0.0000  0.0000  0.0000  0.0000  0.0000  0.0000  0.0000  1.0000      0.0000  0.0000  0.0000  0.0000  0.0000  0.0000  0.0000  0.0000  0.0000  0.0000
  o =  0.6713  v =  1.0000  0.0000  0.0000  0.0000  0.0000  0.0000  0.0000  0.0000  0.0000  0.0000      0.0000  0.0000  0.0000  0.0000  0.0000  0.0000  0.0000  0.0000  0.0000  0.0000
  o =  0.6713  v =  0.0000  1.0000  0.0000  0.0000  0.0000  0.0000  0.0000  0.0000  0.0000  0.0000      0.0000  0.0000  0.0000  0.0000  0.0000  0.0000  0.0000  0.0000  0.0000  0.0000
  o =  0.6713  v =  0.0000  0.0000  1.0000  0.0000  0.0000  0.0000  0.0000  0.0000  0.0000  0.0000      0.0000  0.0000  0.0000  0.0000  0.0000  0.0000  0.0000  0.0000  0.0000  0.0000
  o =  0.6713  v =  0.0000  0.0000  0.0000  1.0000  0.0000  0.0000  0.0000  0.0000  0.0000  0.0000      0.0000  0.0000  0.0000  0.0000  0.0000  0.0000  0.0000  0.0000  0.0000  0.0000
  o =  0.6713  v =  0.0000  0.0000  0.0000  0.0000  1.0000  0.0000  0.0000  0.0000  0.0000  0.0000      0.0000  0.0000  0.0000  0.0000  0.0000  0.0000  0.0000  0.0000  0.0000  0.0000
atom =   3  type =  3  l = 0
 
 onsite density matrix
 
spin component  1
 
  1.0874
 
spin component  2
 
  0.7767
 
 occupancies and eigenvectors
 
  o =  0.7767  v =  0.0000  1.0000      0.0000  0.0000
  o =  1.0874  v =  1.0000  0.0000      0.0000  0.0000
atom =   4  type =  3  l = 0
 
 onsite density matrix
 
spin component  1
 
  1.0874
 
spin component  2
 
  0.7767
 
 occupancies and eigenvectors
 
  o =  0.7767  v =  0.0000  1.0000      0.0000  0.0000
  o =  1.0874  v =  1.0000  0.0000      0.0000  0.0000
atom =   5  type =  3  l = 0
 
 onsite density matrix
 
spin component  1
 
  1.0874
 
spin component  2
 
  0.7767
 
 occupancies and eigenvectors
 
  o =  0.7767  v =  0.0000  1.0000      0.0000  0.0000
  o =  1.0874  v =  1.0000  0.0000      0.0000  0.0000
     EDDAV:  cpu time    0.4399: real time    0.4399
 BZINTS: Fermi energy: 14.892291; 42.000000 electrons
         Band energy:-202.519230;  BLOECHL correction: -0.095947
       DOS:  cpu time    0.0130: real time    0.0137
    --------------------------------------------
      LOOP:  cpu time    0.5279: real time    0.5299

 eigenvalue-minimisations  :  1232
 total energy-change (2. order) : 0.3112786E+03  (-0.1732048E+04)
 number of electron      42.0000000 magnetization       5.0000000
 augmentation part       42.0000000 magnetization       5.0000000

 Free energy of the ion-electron system (eV)
  ---------------------------------------------------
  alpha Z        PSCENC =       249.38870556
  Ewald energy   TEWEN  =     -3081.36582245
  -Hartree energ DENC   =     -1368.70680597
  -exchange      EXHF   =         0.00000000
  -V(xc)+E(xc)   XCENC  =       188.53114120
  PAW double counting   =      3241.81915236    -3317.81696278
  entropy T*S    EENTRO =         0.00000000
  eigenvalues    EBANDS =      -202.51923037
  atomic energy  EATOM  =      4601.94837920
  Solvation  Ediel_sol  =         0.00000000
  ---------------------------------------------------
  free energy    TOTEN  =       311.27855677 eV

  energy without entropy =      311.27855677  energy(sigma->0) =      311.27855677


--------------------------------------------------------------------------------------------------------




----------------------------------------- Iteration    1(   2)  ---------------------------------------


     EDDAV:  cpu time    0.4059: real time    0.4071
 BZINTS: Fermi energy:  5.463942; 42.000000 electrons
         Band energy:-532.247604;  BLOECHL correction: -0.067141
       DOS:  cpu time    0.0120: real time    0.0121
    --------------------------------------------
      LOOP:  cpu time    0.4199: real time    0.4220

 eigenvalue-minimisations  :  1140
 total energy-change (2. order) :-0.3297284E+03  (-0.3200170E+03)
 number of electron      42.0000000 magnetization       5.0000000
 augmentation part       42.0000000 magnetization       5.0000000

 Free energy of the ion-electron system (eV)
  ---------------------------------------------------
  alpha Z        PSCENC =       249.38870556
  Ewald energy   TEWEN  =     -3081.36582245
  -Hartree energ DENC   =     -1368.70680597
  -exchange      EXHF   =         0.00000000
  -V(xc)+E(xc)   XCENC  =       188.53114120
  PAW double counting   =      3241.81915236    -3317.81696278
  entropy T*S    EENTRO =         0.00000000
  eigenvalues    EBANDS =      -532.24760423
  atomic energy  EATOM  =      4601.94837920
  Solvation  Ediel_sol  =         0.00000000
  ---------------------------------------------------
  free energy    TOTEN  =       -18.44981710 eV

  energy without entropy =      -18.44981710  energy(sigma->0) =      -18.44981710


--------------------------------------------------------------------------------------------------------




----------------------------------------- Iteration    1(   3)  ---------------------------------------


     EDDAV:  cpu time    0.5329: real time    0.5338
 BZINTS: Fermi energy:  4.997963; 42.000000 electrons
         Band energy:-550.290993;  BLOECHL correction: -0.044525
       DOS:  cpu time    0.0120: real time    0.0127
    --------------------------------------------
      LOOP:  cpu time    0.5479: real time    0.5490

 eigenvalue-minimisations  :  1556
 total energy-change (2. order) :-0.1804339E+02  (-0.1784377E+02)
 number of electron      42.0000000 magnetization       5.0000000
 augmentation part       42.0000000 magnetization       5.0000000

 Free energy of the ion-electron system (eV)
  ---------------------------------------------------
  alpha Z        PSCENC =       249.38870556
  Ewald energy   TEWEN  =     -3081.36582245
  -Hartree energ DENC   =     -1368.70680597
  -exchange      EXHF   =         0.00000000
  -V(xc)+E(xc)   XCENC  =       188.53114120
  PAW double counting   =      3241.81915236    -3317.81696278
  entropy T*S    EENTRO =         0.00000000
  eigenvalues    EBANDS =      -550.29099272
  atomic energy  EATOM  =      4601.94837920
  Solvation  Ediel_sol  =         0.00000000
  ---------------------------------------------------
  free energy    TOTEN  =       -36.49320559 eV

  energy without entropy =      -36.49320559  energy(sigma->0) =      -36.49320559


--------------------------------------------------------------------------------------------------------




----------------------------------------- Iteration    1(   4)  ---------------------------------------


     EDDAV:  cpu time    0.5829: real time    0.5837
 BZINTS: Fermi energy:  4.974119; 42.000000 electrons
         Band energy:-550.865859;  BLOECHL correction: -0.045001
       DOS:  cpu time    0.0120: real time    0.0123
    --------------------------------------------
      LOOP:  cpu time    0.5979: real time    0.5985

 eigenvalue-minimisations  :  1724
 total energy-change (2. order) :-0.5748661E+00  (-0.5715135E+00)
 number of electron      42.0000000 magnetization       5.0000000
 augmentation part       42.0000000 magnetization       5.0000000

 Free energy of the ion-electron system (eV)
  ---------------------------------------------------
  alpha Z        PSCENC =       249.38870556
  Ewald energy   TEWEN  =     -3081.36582245
  -Hartree energ DENC   =     -1368.70680597
  -exchange      EXHF   =         0.00000000
  -V(xc)+E(xc)   XCENC  =       188.53114120
  PAW double counting   =      3241.81915236    -3317.81696278
  entropy T*S    EENTRO =         0.00000000
  eigenvalues    EBANDS =      -550.86585881
  atomic energy  EATOM  =      4601.94837920
  Solvation  Ediel_sol  =         0.00000000
  ---------------------------------------------------
  free energy    TOTEN  =       -37.06807167 eV

  energy without entropy =      -37.06807167  energy(sigma->0) =      -37.06807167


--------------------------------------------------------------------------------------------------------




----------------------------------------- Iteration    1(   5)  ---------------------------------------


     EDDAV:  cpu time    0.5169: real time    0.5176
 BZINTS: Fermi energy:  4.973260; 42.000000 electrons
         Band energy:-550.875132;  BLOECHL correction: -0.044996
       DOS:  cpu time    0.0130: real time    0.0127
    CHARGE:  cpu time    0.0240: real time    0.0239
    MIXING:  cpu time    0.0010: real time    0.0004
    --------------------------------------------
      LOOP:  cpu time    0.5569: real time    0.5574

 eigenvalue-minimisations  :  1512
 total energy-change (2. order) :-0.9273538E-02  (-0.9243737E-02)
 number of electron      41.9999607 magnetization       3.0615788
 augmentation part       12.7917305 magnetization       1.9656471

 Broyden mixing:
  rms(total) = 0.28720E+01    rms(broyden)= 0.28655E+01
  rms(prec ) = 0.60453E+01
  weight for this iteration     100.00

 Free energy of the ion-electron system (eV)
  ---------------------------------------------------
  alpha Z        PSCENC =       249.38870556
  Ewald energy   TEWEN  =     -3081.36582245
  -Hartree energ DENC   =     -1368.70680597
  -exchange      EXHF   =         0.00000000
  -V(xc)+E(xc)   XCENC  =       188.53114120
  PAW double counting   =      3241.81915236    -3317.81696278
  entropy T*S    EENTRO =         0.00000000
  eigenvalues    EBANDS =      -550.87513234
  atomic energy  EATOM  =      4601.94837920
  Solvation  Ediel_sol  =         0.00000000
  ---------------------------------------------------
  free energy    TOTEN  =       -37.07734521 eV

  energy without entropy =      -37.07734521  energy(sigma->0) =      -37.07734521


--------------------------------------------------------------------------------------------------------




----------------------------------------- Iteration    1(   6)  ---------------------------------------


    POTLOK:  cpu time    0.0580: real time    0.0580
    SETDIJ:  cpu time    0.0120: real time    0.0123
atom =   1  type =  1  l = 0
 
 onsite density matrix
 
spin component  1
 
  0.9760
 
spin component  2
 
  1.1073
 
 occupancies and eigenvectors
 
  o =  0.9760  v =  1.0000  0.0000      0.0000  0.0000
  o =  1.1073  v =  0.0000  1.0000      0.0000  0.0000
atom =   2  type =  2  l = 2
 
 onsite density matrix
 
spin component  1
 
  1.1713  0.0000  0.0000  0.0000  0.0000
  0.0000  1.1713  0.0000  0.0000  0.0000
  0.0000  0.0000  0.6817  0.0000  0.0000
  0.0000  0.0000  0.0000  1.1713  0.0000
  0.0000  0.0000  0.0000  0.0000  0.6817
 
spin component  2
 
 -0.0025  0.0000  0.0000  0.0000  0.0000
  0.0000 -0.0025  0.0000  0.0000  0.0000
  0.0000  0.0000  0.2774  0.0000  0.0000
  0.0000  0.0000  0.0000 -0.0025  0.0000
  0.0000  0.0000  0.0000  0.0000  0.2774
 
 occupancies and eigenvectors
 
  o = -0.0025  v =  0.0000  0.0000  0.0000  0.0000  0.0000  1.0000  0.0000  0.0000  0.0000  0.0000      0.0000  0.0000  0.0000  0.0000  0.0000  0.0000  0.0000  0.0000  0.0000  0.0000
  o = -0.0025  v =  0.0000  0.0000  0.0000  0.0000  0.0000  0.0000 -0.4723  0.0000  0.8814  0.0000      0.0000  0.0000  0.0000  0.0000  0.0000  0.0000  0.0000  0.0000  0.0000  0.0000
  o = -0.0025  v =  0.0000  0.0000  0.0000  0.0000  0.0000  0.0000  0.8814  0.0000  0.4723  0.0000      0.0000  0.0000  0.0000  0.0000  0.0000  0.0000  0.0000  0.0000  0.0000  0.0000
  o =  0.2774  v =  0.0000  0.0000  0.0000  0.0000  0.0000  0.0000  0.0000 -1.0000  0.0000  0.0040      0.0000  0.0000  0.0000  0.0000  0.0000  0.0000  0.0000  0.0000  0.0000  0.0000
  o =  0.2774  v =  0.0000  0.0000  0.0000  0.0000  0.0000  0.0000  0.0000  0.0040  0.0000  1.0000      0.0000  0.0000  0.0000  0.0000  0.0000  0.0000  0.0000  0.0000  0.0000  0.0000
  o =  0.6817  v =  0.0000  0.0000 -0.0208  0.0000  0.9998  0.0000  0.0000  0.0000  0.0000  0.0000      0.0000  0.0000  0.0000  0.0000  0.0000  0.0000  0.0000  0.0000  0.0000  0.0000
  o =  0.6817  v =  0.0000  0.0000  0.9998  0.0000  0.0208  0.0000  0.0000  0.0000  0.0000  0.0000      0.0000  0.0000  0.0000  0.0000  0.0000  0.0000  0.0000  0.0000  0.0000  0.0000
  o =  1.1713  v =  0.0000  0.6508  0.0000  0.7593  0.0000  0.0000  0.0000  0.0000  0.0000  0.0000      0.0000  0.0000  0.0000  0.0000  0.0000  0.0000  0.0000  0.0000  0.0000  0.0000
  o =  1.1713  v =  1.0000  0.0000  0.0000  0.0000  0.0000  0.0000  0.0000  0.0000  0.0000  0.0000      0.0000  0.0000  0.0000  0.0000  0.0000  0.0000  0.0000  0.0000  0.0000  0.0000
  o =  1.1713  v =  0.0000  0.7593  0.0000 -0.6508  0.0000  0.0000  0.0000  0.0000  0.0000  0.0000      0.0000  0.0000  0.0000  0.0000  0.0000  0.0000  0.0000  0.0000  0.0000  0.0000
atom =   3  type =  3  l = 0
 
 onsite density matrix
 
spin component  1
 
  0.8449
 
spin component  2
 
  1.0188
 
 occupancies and eigenvectors
 
  o =  0.8449  v =  1.0000  0.0000      0.0000  0.0000
  o =  1.0188  v =  0.0000  1.0000      0.0000  0.0000
atom =   4  type =  3  l = 0
 
 onsite density matrix
 
spin component  1
 
  0.8449
 
spin component  2
 
  1.0188
 
 occupancies and eigenvectors
 
  o =  0.8449  v =  1.0000  0.0000      0.0000  0.0000
  o =  1.0188  v =  0.0000  1.0000      0.0000  0.0000
atom =   5  type =  3  l = 0
 
 onsite density matrix
 
spin component  1
 
  0.8449
 
spin component  2
 
  1.0188
 
 occupancies and eigenvectors
 
  o =  0.8449  v =  1.0000  0.0000      0.0000  0.0000
  o =  1.0188  v =  0.0000  1.0000      0.0000  0.0000
    EDDIAG:  cpu time    0.0840: real time    0.0842
  RMM-DIIS:  cpu time    0.2030: real time    0.2028
    ORTHCH:  cpu time    0.0130: real time    0.0133
 BZINTS: Fermi energy:  1.632265; 42.000000 electrons
         Band energy:-634.018937;  BLOECHL correction: -0.093972
       DOS:  cpu time    0.0140: real time    0.0140
    CHARGE:  cpu time    0.0230: real time    0.0230
    MIXING:  cpu time    0.0010: real time    0.0004
    --------------------------------------------
      LOOP:  cpu time    0.4089: real time    0.4103

 eigenvalue-minimisations  :  1244
 total energy-change (2. order) :-0.7408469E+01  (-0.1357422E+02)
 number of electron      42.0000095 magnetization       2.1281715
 augmentation part       14.6800861 magnetization       1.9482505

 Broyden mixing:
  rms(total) = 0.46760E+01    rms(broyden)= 0.46736E+01
  rms(prec ) = 0.10232E+02
  weight for this iteration     100.00

 eigenvalues of (default mixing * dielectric matrix)
  average eigenvalue GAMMA=   0.4031
  0.4031

 Free energy of the ion-electron system (eV)
  ---------------------------------------------------
  alpha Z        PSCENC =       249.38870556
  Ewald energy   TEWEN  =     -3081.36582245
  -Hartree energ DENC   =     -1300.84266361
  -exchange      EXHF   =         0.00000000
  -V(xc)+E(xc)   XCENC  =       189.20707267
  PAW double counting   =      3199.69117693    -3268.49372498
  entropy T*S    EENTRO =         0.00000000
  eigenvalues    EBANDS =      -634.01893720
  atomic energy  EATOM  =      4601.94837920
  Solvation  Ediel_sol  =         0.00000000
  ---------------------------------------------------
  free energy    TOTEN  =       -44.48581387 eV

  energy without entropy =      -44.48581387  energy(sigma->0) =      -44.48581387


--------------------------------------------------------------------------------------------------------




----------------------------------------- Iteration    1(   7)  ---------------------------------------


    POTLOK:  cpu time    0.0570: real time    0.0580
    SETDIJ:  cpu time    0.0120: real time    0.0119
atom =   1  type =  1  l = 0
 
 onsite density matrix
 
spin component  1
 
  1.0080
 
spin component  2
 
  1.0622
 
 occupancies and eigenvectors
 
  o =  1.0080  v =  1.0000  0.0000      0.0000  0.0000
  o =  1.0622  v =  0.0000  1.0000      0.0000  0.0000
atom =   2  type =  2  l = 2
 
 onsite density matrix
 
spin component  1
 
  0.9135  0.0000  0.0000  0.0000  0.0000
  0.0000  0.9135  0.0000  0.0000  0.0000
  0.0000  0.0000  0.6554  0.0000  0.0000
  0.0000  0.0000  0.0000  0.9135  0.0000
  0.0000  0.0000  0.0000  0.0000  0.6554
 
spin component  2
 
  0.3513  0.0000  0.0000  0.0000  0.0000
  0.0000  0.3513  0.0000  0.0000  0.0000
  0.0000  0.0000  0.4311  0.0000  0.0000
  0.0000  0.0000  0.0000  0.3513  0.0000
  0.0000  0.0000  0.0000  0.0000  0.4311
 
 occupancies and eigenvectors
 
  o =  0.3513  v =  0.0000  0.0000  0.0000  0.0000  0.0000  0.0000 -0.1173  0.0000  0.9931  0.0000      0.0000  0.0000  0.0000  0.0000  0.0000  0.0000  0.0000  0.0000  0.0000  0.0000
  o =  0.3513  v =  0.0000  0.0000  0.0000  0.0000  0.0000  1.0000  0.0000  0.0000  0.0000  0.0000      0.0000  0.0000  0.0000  0.0000  0.0000  0.0000  0.0000  0.0000  0.0000  0.0000
  o =  0.3513  v =  0.0000  0.0000  0.0000  0.0000  0.0000  0.0000  0.9931  0.0000  0.1173  0.0000      0.0000  0.0000  0.0000  0.0000  0.0000  0.0000  0.0000  0.0000  0.0000  0.0000
  o =  0.4311  v =  0.0000  0.0000  0.0000  0.0000  0.0000  0.0000  0.0000  0.9933  0.0000 -0.1154      0.0000  0.0000  0.0000  0.0000  0.0000  0.0000  0.0000  0.0000  0.0000  0.0000
  o =  0.4311  v =  0.0000  0.0000  0.0000  0.0000  0.0000  0.0000  0.0000  0.1154  0.0000  0.9933      0.0000  0.0000  0.0000  0.0000  0.0000  0.0000  0.0000  0.0000  0.0000  0.0000
  o =  0.6554  v =  0.0000  0.0000  0.2673  0.0000 -0.9636  0.0000  0.0000  0.0000  0.0000  0.0000      0.0000  0.0000  0.0000  0.0000  0.0000  0.0000  0.0000  0.0000  0.0000  0.0000
  o =  0.6554  v =  0.0000  0.0000  0.9636  0.0000  0.2673  0.0000  0.0000  0.0000  0.0000  0.0000      0.0000  0.0000  0.0000  0.0000  0.0000  0.0000  0.0000  0.0000  0.0000  0.0000
  o =  0.9135  v =  0.0000  0.3404  0.0000  0.9403  0.0000  0.0000  0.0000  0.0000  0.0000  0.0000      0.0000  0.0000  0.0000  0.0000  0.0000  0.0000  0.0000  0.0000  0.0000  0.0000
  o =  0.9135  v =  0.0000  0.9403  0.0000 -0.3404  0.0000  0.0000  0.0000  0.0000  0.0000  0.0000      0.0000  0.0000  0.0000  0.0000  0.0000  0.0000  0.0000  0.0000  0.0000  0.0000
  o =  0.9135  v =  1.0000  0.0000  0.0000  0.0000  0.0000  0.0000  0.0000  0.0000  0.0000  0.0000      0.0000  0.0000  0.0000  0.0000  0.0000  0.0000  0.0000  0.0000  0.0000  0.0000
atom =   3  type =  3  l = 0
 
 onsite density matrix
 
spin component  1
 
  0.8954
 
spin component  2
 
  0.9683
 
 occupancies and eigenvectors
 
  o =  0.8954  v =  1.0000  0.0000      0.0000  0.0000
  o =  0.9683  v =  0.0000  1.0000      0.0000  0.0000
atom =   4  type =  3  l = 0
 
 onsite density matrix
 
spin component  1
 
  0.8954
 
spin component  2
 
  0.9683
 
 occupancies and eigenvectors
 
  o =  0.8954  v =  1.0000  0.0000      0.0000  0.0000
  o =  0.9683  v =  0.0000  1.0000      0.0000  0.0000
atom =   5  type =  3  l = 0
 
 onsite density matrix
 
spin component  1
 
  0.8954
 
spin component  2
 
  0.9683
 
 occupancies and eigenvectors
 
  o =  0.8954  v =  1.0000  0.0000      0.0000  0.0000
  o =  0.9683  v =  0.0000  1.0000      0.0000  0.0000
    EDDIAG:  cpu time    0.0840: real time    0.0842
  RMM-DIIS:  cpu time    0.1830: real time    0.1826
    ORTHCH:  cpu time    0.0130: real time    0.0130
 BZINTS: Fermi energy:  3.352429; 42.000000 electrons
         Band energy:-548.067193;  BLOECHL correction: -0.044895
       DOS:  cpu time    0.0120: real time    0.0120
    CHARGE:  cpu time    0.0220: real time    0.0226
    MIXING:  cpu time    0.0010: real time    0.0004
    --------------------------------------------
      LOOP:  cpu time    0.3849: real time    0.3871

 eigenvalue-minimisations  :  1135
 total energy-change (2. order) : 0.1225752E+02  (-0.3501018E+01)
 number of electron      41.9999761 magnetization       3.0648367
 augmentation part       12.6541179 magnetization       1.7883244

 Broyden mixing:
  rms(total) = 0.17221E+01    rms(broyden)= 0.17201E+01
  rms(prec ) = 0.31790E+01
  weight for this iteration     100.00

 eigenvalues of (default mixing * dielectric matrix)
  average eigenvalue GAMMA=   0.4706
  0.2279  0.7133

 Free energy of the ion-electron system (eV)
  ---------------------------------------------------
  alpha Z        PSCENC =       249.38870556
  Ewald energy   TEWEN  =     -3081.36582245
  -Hartree energ DENC   =     -1360.85971322
  -exchange      EXHF   =         0.00000000
  -V(xc)+E(xc)   XCENC  =       189.37358643
  PAW double counting   =      3320.46981847    -3403.11605495
  entropy T*S    EENTRO =         0.00000000
  eigenvalues    EBANDS =      -548.06719345
  atomic energy  EATOM  =      4601.94837920
  Solvation  Ediel_sol  =         0.00000000
  ---------------------------------------------------
  free energy    TOTEN  =       -32.22829440 eV

  energy without entropy =      -32.22829440  energy(sigma->0) =      -32.22829440


--------------------------------------------------------------------------------------------------------




----------------------------------------- Iteration    1(   8)  ---------------------------------------


    POTLOK:  cpu time    0.0590: real time    0.0593
    SETDIJ:  cpu time    0.0120: real time    0.0121
atom =   1  type =  1  l = 0
 
 onsite density matrix
 
spin component  1
 
  1.0331
 
spin component  2
 
  1.0147
 
 occupancies and eigenvectors
 
  o =  1.0147  v =  0.0000  1.0000      0.0000  0.0000
  o =  1.0331  v =  1.0000  0.0000      0.0000  0.0000
atom =   2  type =  2  l = 2
 
 onsite density matrix
 
spin component  1
 
  0.9644  0.0000  0.0000  0.0000  0.0000
  0.0000  0.9644  0.0000  0.0000  0.0000
  0.0000  0.0000  0.7554  0.0000  0.0000
  0.0000  0.0000  0.0000  0.9644  0.0000
  0.0000  0.0000  0.0000  0.0000  0.7554
 
spin component  2
 
  0.2684  0.0000  0.0000  0.0000  0.0000
  0.0000  0.2684  0.0000  0.0000  0.0000
  0.0000  0.0000  0.3132  0.0000  0.0000
  0.0000  0.0000  0.0000  0.2684  0.0000
  0.0000  0.0000  0.0000  0.0000  0.3132
 
 occupancies and eigenvectors
 
  o =  0.2684  v =  0.0000  0.0000  0.0000  0.0000  0.0000  0.0000 -0.0525  0.0000  0.9986  0.0000      0.0000  0.0000  0.0000  0.0000  0.0000  0.0000  0.0000  0.0000  0.0000  0.0000
  o =  0.2684  v =  0.0000  0.0000  0.0000  0.0000  0.0000  1.0000  0.0000  0.0000  0.0000  0.0000      0.0000  0.0000  0.0000  0.0000  0.0000  0.0000  0.0000  0.0000  0.0000  0.0000
  o =  0.2684  v =  0.0000  0.0000  0.0000  0.0000  0.0000  0.0000 -0.9986  0.0000 -0.0525  0.0000      0.0000  0.0000  0.0000  0.0000  0.0000  0.0000  0.0000  0.0000  0.0000  0.0000
  o =  0.3132  v =  0.0000  0.0000  0.0000  0.0000  0.0000  0.0000  0.0000 -0.0760  0.0000  0.9971      0.0000  0.0000  0.0000  0.0000  0.0000  0.0000  0.0000  0.0000  0.0000  0.0000
  o =  0.3132  v =  0.0000  0.0000  0.0000  0.0000  0.0000  0.0000  0.0000 -0.9971  0.0000 -0.0760      0.0000  0.0000  0.0000  0.0000  0.0000  0.0000  0.0000  0.0000  0.0000  0.0000
  o =  0.7554  v =  0.0000  0.0000  0.9993  0.0000 -0.0377  0.0000  0.0000  0.0000  0.0000  0.0000      0.0000  0.0000  0.0000  0.0000  0.0000  0.0000  0.0000  0.0000  0.0000  0.0000
  o =  0.7554  v =  0.0000  0.0000  0.0377  0.0000  0.9993  0.0000  0.0000  0.0000  0.0000  0.0000      0.0000  0.0000  0.0000  0.0000  0.0000  0.0000  0.0000  0.0000  0.0000  0.0000
  o =  0.9644  v =  0.0000  0.8534  0.0000  0.5212  0.0000  0.0000  0.0000  0.0000  0.0000  0.0000      0.0000  0.0000  0.0000  0.0000  0.0000  0.0000  0.0000  0.0000  0.0000  0.0000
  o =  0.9644  v =  0.0000  0.5212  0.0000 -0.8534  0.0000  0.0000  0.0000  0.0000  0.0000  0.0000      0.0000  0.0000  0.0000  0.0000  0.0000  0.0000  0.0000  0.0000  0.0000  0.0000
  o =  0.9644  v =  1.0000  0.0000  0.0000  0.0000  0.0000  0.0000  0.0000  0.0000  0.0000  0.0000      0.0000  0.0000  0.0000  0.0000  0.0000  0.0000  0.0000  0.0000  0.0000  0.0000
atom =   3  type =  3  l = 0
 
 onsite density matrix
 
spin component  1
 
  0.9470
 
spin component  2
 
  0.9170
 
 occupancies and eigenvectors
 
  o =  0.9170  v =  0.0000  1.0000      0.0000  0.0000
  o =  0.9470  v =  1.0000  0.0000      0.0000  0.0000
atom =   4  type =  3  l = 0
 
 onsite density matrix
 
spin component  1
 
  0.9470
 
spin component  2
 
  0.9170
 
 occupancies and eigenvectors
 
  o =  0.9170  v =  0.0000  1.0000      0.0000  0.0000
  o =  0.9470  v =  1.0000  0.0000      0.0000  0.0000
atom =   5  type =  3  l = 0
 
 onsite density matrix
 
spin component  1
 
  0.9470
 
spin component  2
 
  0.9170
 
 occupancies and eigenvectors
 
  o =  0.9170  v =  0.0000  1.0000      0.0000  0.0000
  o =  0.9470  v =  1.0000  0.0000      0.0000  0.0000
    EDDIAG:  cpu time    0.0840: real time    0.0841
  RMM-DIIS:  cpu time    0.1960: real time    0.1955
    ORTHCH:  cpu time    0.0130: real time    0.0130
 BZINTS: Fermi energy:  2.122113; 41.998667 electrons
         Band energy:-559.854267;  BLOECHL correction: -0.052049
       DOS:  cpu time    0.0170: real time    0.0173
    CHARGE:  cpu time    0.0230: real time    0.0230
    MIXING:  cpu time    0.0010: real time    0.0005
    --------------------------------------------
      LOOP:  cpu time    0.4059: real time    0.4068

 eigenvalue-minimisations  :  1199
 total energy-change (2. order) : 0.4525782E+00  (-0.6696290E-01)
 number of electron      41.9986460 magnetization       3.5868123
 augmentation part       12.7350818 magnetization       2.4195475

 Broyden mixing:
  rms(total) = 0.10868E+01    rms(broyden)= 0.10863E+01
  rms(prec ) = 0.22708E+01
  weight for this iteration     100.00

 eigenvalues of (default mixing * dielectric matrix)
  average eigenvalue GAMMA=   0.7868
  0.3059  0.7717  1.2827

 Free energy of the ion-electron system (eV)
  ---------------------------------------------------
  alpha Z        PSCENC =       249.38870556
  Ewald energy   TEWEN  =     -3081.36582245
  -Hartree energ DENC   =     -1348.03088898
  -exchange      EXHF   =         0.00000000
  -V(xc)+E(xc)   XCENC  =       189.56753332
  PAW double counting   =      3329.07659948    -3412.50595538
  entropy T*S    EENTRO =         0.00000000
  eigenvalues    EBANDS =      -559.85426700
  atomic energy  EATOM  =      4601.94837920
  Solvation  Ediel_sol  =         0.00000000
  ---------------------------------------------------
  free energy    TOTEN  =       -31.77571625 eV

  energy without entropy =      -31.77571625  energy(sigma->0) =      -31.77571625


--------------------------------------------------------------------------------------------------------




----------------------------------------- Iteration    1(   9)  ---------------------------------------


    POTLOK:  cpu time    0.0590: real time    0.0584
    SETDIJ:  cpu time    0.0120: real time    0.0120
atom =   1  type =  1  l = 0
 
 onsite density matrix
 
spin component  1
 
  0.9962
 
spin component  2
 
  1.0219
 
 occupancies and eigenvectors
 
  o =  0.9962  v =  1.0000  0.0000      0.0000  0.0000
  o =  1.0219  v =  0.0000  1.0000      0.0000  0.0000
atom =   2  type =  2  l = 2
 
 onsite density matrix
 
spin component  1
 
  0.9696  0.0000  0.0000  0.0000  0.0000
  0.0000  0.9696  0.0000  0.0000  0.0000
  0.0000  0.0000  0.8341  0.0000  0.0000
  0.0000  0.0000  0.0000  0.9696  0.0000
  0.0000  0.0000  0.0000  0.0000  0.8341
 
spin component  2
 
  0.2065  0.0000  0.0000  0.0000  0.0000
  0.0000  0.2065  0.0000  0.0000  0.0000
  0.0000  0.0000  0.2371  0.0000  0.0000
  0.0000  0.0000  0.0000  0.2065  0.0000
  0.0000  0.0000  0.0000  0.0000  0.2371
 
 occupancies and eigenvectors
 
  o =  0.2065  v =  0.0000  0.0000  0.0000  0.0000  0.0000  1.0000  0.0000  0.0000  0.0000  0.0000      0.0000  0.0000  0.0000  0.0000  0.0000  0.0000  0.0000  0.0000  0.0000  0.0000
  o =  0.2065  v =  0.0000  0.0000  0.0000  0.0000  0.0000  0.0000  0.9686  0.0000 -0.2488  0.0000      0.0000  0.0000  0.0000  0.0000  0.0000  0.0000  0.0000  0.0000  0.0000  0.0000
  o =  0.2065  v =  0.0000  0.0000  0.0000  0.0000  0.0000  0.0000 -0.2488  0.0000 -0.9686  0.0000      0.0000  0.0000  0.0000  0.0000  0.0000  0.0000  0.0000  0.0000  0.0000  0.0000
  o =  0.2371  v =  0.0000  0.0000  0.0000  0.0000  0.0000  0.0000  0.0000  0.9532  0.0000 -0.3023      0.0000  0.0000  0.0000  0.0000  0.0000  0.0000  0.0000  0.0000  0.0000  0.0000
  o =  0.2371  v =  0.0000  0.0000  0.0000  0.0000  0.0000  0.0000  0.0000 -0.3023  0.0000 -0.9532      0.0000  0.0000  0.0000  0.0000  0.0000  0.0000  0.0000  0.0000  0.0000  0.0000
  o =  0.8341  v =  0.0000  0.0000  0.1090  0.0000 -0.9940  0.0000  0.0000  0.0000  0.0000  0.0000      0.0000  0.0000  0.0000  0.0000  0.0000  0.0000  0.0000  0.0000  0.0000  0.0000
  o =  0.8341  v =  0.0000  0.0000 -0.9940  0.0000 -0.1090  0.0000  0.0000  0.0000  0.0000  0.0000      0.0000  0.0000  0.0000  0.0000  0.0000  0.0000  0.0000  0.0000  0.0000  0.0000
  o =  0.9696  v =  0.0000 -0.8516  0.0000 -0.5242  0.0000  0.0000  0.0000  0.0000  0.0000  0.0000      0.0000  0.0000  0.0000  0.0000  0.0000  0.0000  0.0000  0.0000  0.0000  0.0000
  o =  0.9696  v =  0.0000 -0.5242  0.0000  0.8516  0.0000  0.0000  0.0000  0.0000  0.0000  0.0000      0.0000  0.0000  0.0000  0.0000  0.0000  0.0000  0.0000  0.0000  0.0000  0.0000
  o =  0.9696  v =  1.0000  0.0000  0.0000  0.0000  0.0000  0.0000  0.0000  0.0000  0.0000  0.0000      0.0000  0.0000  0.0000  0.0000  0.0000  0.0000  0.0000  0.0000  0.0000  0.0000
atom =   3  type =  3  l = 0
 
 onsite density matrix
 
spin component  1
 
  0.9154
 
spin component  2
 
  0.9464
 
 occupancies and eigenvectors
 
  o =  0.9154  v =  1.0000  0.0000      0.0000  0.0000
  o =  0.9464  v =  0.0000  1.0000      0.0000  0.0000
atom =   4  type =  3  l = 0
 
 onsite density matrix
 
spin component  1
 
  0.9154
 
spin component  2
 
  0.9464
 
 occupancies and eigenvectors
 
  o =  0.9154  v =  1.0000  0.0000      0.0000  0.0000
  o =  0.9464  v =  0.0000  1.0000      0.0000  0.0000
atom =   5  type =  3  l = 0
 
 onsite density matrix
 
spin component  1
 
  0.9154
 
spin component  2
 
  0.9464
 
 occupancies and eigenvectors
 
  o =  0.9154  v =  1.0000  0.0000      0.0000  0.0000
  o =  0.9464  v =  0.0000  1.0000      0.0000  0.0000
    EDDIAG:  cpu time    0.0840: real time    0.0843
  RMM-DIIS:  cpu time    0.1880: real time    0.1884
    ORTHCH:  cpu time    0.0130: real time    0.0130
 BZINTS: Fermi energy:  1.526480; 42.000000 electrons
         Band energy:-576.064806;  BLOECHL correction: -0.037901
       DOS:  cpu time    0.0120: real time    0.0117
    CHARGE:  cpu time    0.0220: real time    0.0226
    MIXING:  cpu time    0.0010: real time    0.0005
    --------------------------------------------
      LOOP:  cpu time    0.3909: real time    0.3931

 eigenvalue-minimisations  :  1156
 total energy-change (2. order) : 0.7709164E+00  (-0.1569814E+00)
 number of electron      41.9999842 magnetization       3.9735867
 augmentation part       12.8955461 magnetization       2.9077449

 Broyden mixing:
  rms(total) = 0.49823E+00    rms(broyden)= 0.49561E+00
  rms(prec ) = 0.86967E+00
  weight for this iteration     100.00

 eigenvalues of (default mixing * dielectric matrix)
  average eigenvalue GAMMA=   0.9513
  2.0424  0.3041  0.8707  0.5880

 Free energy of the ion-electron system (eV)
  ---------------------------------------------------
  alpha Z        PSCENC =       249.38870556
  Ewald energy   TEWEN  =     -3081.36582245
  -Hartree energ DENC   =     -1330.13404714
  -exchange      EXHF   =         0.00000000
  -V(xc)+E(xc)   XCENC  =       189.65180389
  PAW double counting   =      3345.46506544    -3429.89407867
  entropy T*S    EENTRO =         0.00000000
  eigenvalues    EBANDS =      -576.06480567
  atomic energy  EATOM  =      4601.94837920
  Solvation  Ediel_sol  =         0.00000000
  ---------------------------------------------------
  free energy    TOTEN  =       -31.00479984 eV

  energy without entropy =      -31.00479984  energy(sigma->0) =      -31.00479984


--------------------------------------------------------------------------------------------------------




----------------------------------------- Iteration    1(  10)  ---------------------------------------


    POTLOK:  cpu time    0.0580: real time    0.0580
    SETDIJ:  cpu time    0.0120: real time    0.0120
atom =   1  type =  1  l = 0
 
 onsite density matrix
 
spin component  1
 
  0.9974
 
spin component  2
 
  0.9962
 
 occupancies and eigenvectors
 
  o =  0.9962  v =  0.0000  1.0000      0.0000  0.0000
  o =  0.9974  v =  1.0000  0.0000      0.0000  0.0000
atom =   2  type =  2  l = 2
 
 onsite density matrix
 
spin component  1
 
  0.9927  0.0000  0.0000  0.0000  0.0000
  0.0000  0.9927  0.0000  0.0000  0.0000
  0.0000  0.0000  0.9230  0.0000  0.0000
  0.0000  0.0000  0.0000  0.9927  0.0000
  0.0000  0.0000  0.0000  0.0000  0.9230
 
spin component  2
 
  0.1168  0.0000  0.0000  0.0000  0.0000
  0.0000  0.1168  0.0000  0.0000  0.0000
  0.0000  0.0000  0.1845  0.0000  0.0000
  0.0000  0.0000  0.0000  0.1168  0.0000
  0.0000  0.0000  0.0000  0.0000  0.1845
 
 occupancies and eigenvectors
 
  o =  0.1168  v =  0.0000  0.0000  0.0000  0.0000  0.0000  0.0000 -0.9999  0.0000 -0.0127  0.0000      0.0000  0.0000  0.0000  0.0000  0.0000  0.0000  0.0000  0.0000  0.0000  0.0000
  o =  0.1168  v =  0.0000  0.0000  0.0000  0.0000  0.0000  0.0000 -0.0127  0.0000  0.9999  0.0000      0.0000  0.0000  0.0000  0.0000  0.0000  0.0000  0.0000  0.0000  0.0000  0.0000
  o =  0.1168  v =  0.0000  0.0000  0.0000  0.0000  0.0000  1.0000  0.0000  0.0000  0.0000  0.0000      0.0000  0.0000  0.0000  0.0000  0.0000  0.0000  0.0000  0.0000  0.0000  0.0000
  o =  0.1845  v =  0.0000  0.0000  0.0000  0.0000  0.0000  0.0000  0.0000  0.9996  0.0000  0.0298      0.0000  0.0000  0.0000  0.0000  0.0000  0.0000  0.0000  0.0000  0.0000  0.0000
  o =  0.1845  v =  0.0000  0.0000  0.0000  0.0000  0.0000  0.0000  0.0000 -0.0298  0.0000  0.9996      0.0000  0.0000  0.0000  0.0000  0.0000  0.0000  0.0000  0.0000  0.0000  0.0000
  o =  0.9230  v =  0.0000  0.0000  0.6053  0.0000 -0.7960  0.0000  0.0000  0.0000  0.0000  0.0000      0.0000  0.0000  0.0000  0.0000  0.0000  0.0000  0.0000  0.0000  0.0000  0.0000
  o =  0.9230  v =  0.0000  0.0000 -0.7960  0.0000 -0.6053  0.0000  0.0000  0.0000  0.0000  0.0000      0.0000  0.0000  0.0000  0.0000  0.0000  0.0000  0.0000  0.0000  0.0000  0.0000
  o =  0.9927  v =  0.0000  0.7053  0.0000 -0.7089  0.0000  0.0000  0.0000  0.0000  0.0000  0.0000      0.0000  0.0000  0.0000  0.0000  0.0000  0.0000  0.0000  0.0000  0.0000  0.0000
  o =  0.9927  v =  0.0000  0.7089  0.0000  0.7053  0.0000  0.0000  0.0000  0.0000  0.0000  0.0000      0.0000  0.0000  0.0000  0.0000  0.0000  0.0000  0.0000  0.0000  0.0000  0.0000
  o =  0.9927  v =  1.0000  0.0000  0.0000  0.0000  0.0000  0.0000  0.0000  0.0000  0.0000  0.0000      0.0000  0.0000  0.0000  0.0000  0.0000  0.0000  0.0000  0.0000  0.0000  0.0000
atom =   3  type =  3  l = 0
 
 onsite density matrix
 
spin component  1
 
  0.9330
 
spin component  2
 
  0.9245
 
 occupancies and eigenvectors
 
  o =  0.9245  v =  0.0000  1.0000      0.0000  0.0000
  o =  0.9330  v =  1.0000  0.0000      0.0000  0.0000
atom =   4  type =  3  l = 0
 
 onsite density matrix
 
spin component  1
 
  0.9330
 
spin component  2
 
  0.9245
 
 occupancies and eigenvectors
 
  o =  0.9245  v =  0.0000  1.0000      0.0000  0.0000
  o =  0.9330  v =  1.0000  0.0000      0.0000  0.0000
atom =   5  type =  3  l = 0
 
 onsite density matrix
 
spin component  1
 
  0.9330
 
spin component  2
 
  0.9245
 
 occupancies and eigenvectors
 
  o =  0.9245  v =  0.0000  1.0000      0.0000  0.0000
  o =  0.9330  v =  1.0000  0.0000      0.0000  0.0000
    EDDIAG:  cpu time    0.0840: real time    0.0843
  RMM-DIIS:  cpu time    0.1900: real time    0.1899
    ORTHCH:  cpu time    0.0130: real time    0.0130
 BZINTS: Fermi energy:  1.480601; 42.000000 electrons
         Band energy:-590.075541;  BLOECHL correction: -0.037414
       DOS:  cpu time    0.0130: real time    0.0129
    CHARGE:  cpu time    0.0220: real time    0.0226
    MIXING:  cpu time    0.0010: real time    0.0006
    --------------------------------------------
      LOOP:  cpu time    0.3939: real time    0.3954

 eigenvalue-minimisations  :  1161
 total energy-change (2. order) :-0.1361986E-01  (-0.8330862E-01)
 number of electron      41.9999872 magnetization       4.2104897
 augmentation part       13.0349705 magnetization       3.0293196

 Broyden mixing:
  rms(total) = 0.19087E+00    rms(broyden)= 0.18809E+00
  rms(prec ) = 0.26662E+00
  weight for this iteration     100.00

 eigenvalues of (default mixing * dielectric matrix)
  average eigenvalue GAMMA=   0.8833
  1.5737  1.3706  0.3034  0.5843  0.5843

 Free energy of the ion-electron system (eV)
  ---------------------------------------------------
  alpha Z        PSCENC =       249.38870556
  Ewald energy   TEWEN  =     -3081.36582245
  -Hartree energ DENC   =     -1315.68608038
  -exchange      EXHF   =         0.00000000
  -V(xc)+E(xc)   XCENC  =       189.83882229
  PAW double counting   =      3361.89536823    -3446.96225163
  entropy T*S    EENTRO =         0.00000000
  eigenvalues    EBANDS =      -590.07554054
  atomic energy  EATOM  =      4601.94837920
  Solvation  Ediel_sol  =         0.00000000
  ---------------------------------------------------
  free energy    TOTEN  =       -31.01841970 eV

  energy without entropy =      -31.01841970  energy(sigma->0) =      -31.01841970


--------------------------------------------------------------------------------------------------------




----------------------------------------- Iteration    1(  11)  ---------------------------------------


    POTLOK:  cpu time    0.0580: real time    0.0582
    SETDIJ:  cpu time    0.0120: real time    0.0122
atom =   1  type =  1  l = 0
 
 onsite density matrix
 
spin component  1
 
  0.9947
 
spin component  2
 
  0.9975
 
 occupancies and eigenvectors
 
  o =  0.9947  v =  1.0000  0.0000      0.0000  0.0000
  o =  0.9975  v =  0.0000  1.0000      0.0000  0.0000
atom =   2  type =  2  l = 2
 
 onsite density matrix
 
spin component  1
 
  0.9836  0.0000  0.0000  0.0000  0.0000
  0.0000  0.9836  0.0000  0.0000  0.0000
  0.0000  0.0000  0.9249  0.0000  0.0000
  0.0000  0.0000  0.0000  0.9836  0.0000
  0.0000  0.0000  0.0000  0.0000  0.9249
 
spin component  2
 
  0.1148  0.0000  0.0000  0.0000  0.0000
  0.0000  0.1148  0.0000  0.0000  0.0000
  0.0000  0.0000  0.1952  0.0000  0.0000
  0.0000  0.0000  0.0000  0.1148  0.0000
  0.0000  0.0000  0.0000  0.0000  0.1952
 
 occupancies and eigenvectors
 
  o =  0.1148  v =  0.0000  0.0000  0.0000  0.0000  0.0000  0.0000 -0.3993  0.0000 -0.9168  0.0000      0.0000  0.0000  0.0000  0.0000  0.0000  0.0000  0.0000  0.0000  0.0000  0.0000
  o =  0.1148  v =  0.0000  0.0000  0.0000  0.0000  0.0000  0.0000 -0.9168  0.0000  0.3993  0.0000      0.0000  0.0000  0.0000  0.0000  0.0000  0.0000  0.0000  0.0000  0.0000  0.0000
  o =  0.1148  v =  0.0000  0.0000  0.0000  0.0000  0.0000  1.0000  0.0000  0.0000  0.0000  0.0000      0.0000  0.0000  0.0000  0.0000  0.0000  0.0000  0.0000  0.0000  0.0000  0.0000
  o =  0.1952  v =  0.0000  0.0000  0.0000  0.0000  0.0000  0.0000  0.0000  0.9949  0.0000 -0.1005      0.0000  0.0000  0.0000  0.0000  0.0000  0.0000  0.0000  0.0000  0.0000  0.0000
  o =  0.1952  v =  0.0000  0.0000  0.0000  0.0000  0.0000  0.0000  0.0000 -0.1005  0.0000 -0.9949      0.0000  0.0000  0.0000  0.0000  0.0000  0.0000  0.0000  0.0000  0.0000  0.0000
  o =  0.9249  v =  0.0000  0.0000 -0.0143  0.0000  0.9999  0.0000  0.0000  0.0000  0.0000  0.0000      0.0000  0.0000  0.0000  0.0000  0.0000  0.0000  0.0000  0.0000  0.0000  0.0000
  o =  0.9249  v =  0.0000  0.0000  0.9999  0.0000  0.0143  0.0000  0.0000  0.0000  0.0000  0.0000      0.0000  0.0000  0.0000  0.0000  0.0000  0.0000  0.0000  0.0000  0.0000  0.0000
  o =  0.9836  v =  0.0000  0.0695  0.0000 -0.9976  0.0000  0.0000  0.0000  0.0000  0.0000  0.0000      0.0000  0.0000  0.0000  0.0000  0.0000  0.0000  0.0000  0.0000  0.0000  0.0000
  o =  0.9836  v =  1.0000  0.0000  0.0000  0.0000  0.0000  0.0000  0.0000  0.0000  0.0000  0.0000      0.0000  0.0000  0.0000  0.0000  0.0000  0.0000  0.0000  0.0000  0.0000  0.0000
  o =  0.9836  v =  0.0000  0.9976  0.0000  0.0695  0.0000  0.0000  0.0000  0.0000  0.0000  0.0000      0.0000  0.0000  0.0000  0.0000  0.0000  0.0000  0.0000  0.0000  0.0000  0.0000
atom =   3  type =  3  l = 0
 
 onsite density matrix
 
spin component  1
 
  0.9298
 
spin component  2
 
  0.9268
 
 occupancies and eigenvectors
 
  o =  0.9268  v =  0.0000  1.0000      0.0000  0.0000
  o =  0.9298  v =  1.0000  0.0000      0.0000  0.0000
atom =   4  type =  3  l = 0
 
 onsite density matrix
 
spin component  1
 
  0.9298
 
spin component  2
 
  0.9268
 
 occupancies and eigenvectors
 
  o =  0.9268  v =  0.0000  1.0000      0.0000  0.0000
  o =  0.9298  v =  1.0000  0.0000      0.0000  0.0000
atom =   5  type =  3  l = 0
 
 onsite density matrix
 
spin component  1
 
  0.9298
 
spin component  2
 
  0.9268
 
 occupancies and eigenvectors
 
  o =  0.9268  v =  0.0000  1.0000      0.0000  0.0000
  o =  0.9298  v =  1.0000  0.0000      0.0000  0.0000
    EDDIAG:  cpu time    0.0850: real time    0.0844
  RMM-DIIS:  cpu time    0.1840: real time    0.1847
    ORTHCH:  cpu time    0.0120: real time    0.0129
 BZINTS: Fermi energy:  1.439360; 42.000000 electrons
         Band energy:-589.545224;  BLOECHL correction: -0.039355
       DOS:  cpu time    0.0140: real time    0.0132
    CHARGE:  cpu time    0.0220: real time    0.0227
    MIXING:  cpu time    0.0010: real time    0.0006
    --------------------------------------------
      LOOP:  cpu time    0.3889: real time    0.3911

 eigenvalue-minimisations  :  1141
 total energy-change (2. order) :-0.2127936E-01  (-0.4145095E-02)
 number of electron      41.9999873 magnetization       4.4264123
 augmentation part       13.0308580 magnetization       3.1627920

 Broyden mixing:
  rms(total) = 0.14692E+00    rms(broyden)= 0.14673E+00
  rms(prec ) = 0.23141E+00
  weight for this iteration     100.00

 eigenvalues of (default mixing * dielectric matrix)
[...]
     10     -13.2004      1.00000
     11      -2.4443      1.00000
     12      -1.6348      1.00000
     13      -1.5168      1.00000
     14      -0.7817      1.00000
     15      -0.0109      1.00000
     16       0.0595      1.00000
     17       0.7483      1.00000
     18       0.7710      1.00000
     19       1.2185      1.01108
     20       3.5268      0.00000
     21       3.6207      0.00000
     22       3.7112      0.00000
     23       3.8319      0.00000
     24       4.7123      0.00000
     25       8.2978      0.00000
     26       8.4845      0.00000
     27       8.5687      0.00000
     28       9.8947      0.00000

 k-point     5 :       0.4167    0.2500    0.0833
  band No.  band energies     occupation 
      1     -51.1430      1.00000
      2     -51.1426      1.00000
      3     -51.1423      1.00000
      4     -31.4324      1.00000
      5     -15.1859      1.00000
      6     -14.6031      1.00000
      7     -14.2477      1.00000
      8     -13.4295      1.00000
      9     -13.2507      1.00000
     10     -13.1191      1.00000
     11      -2.7155      1.00000
     12      -1.6543      1.00000
     13      -1.3998      1.00000
     14      -1.3003      1.00000
     15      -0.3767      1.00000
     16       0.0602      1.00000
     17       0.5017      1.00000
     18       0.7056      1.00000
     19       1.3059      0.94710
     20       3.5826      0.00000
     21       3.8283      0.00000
     22       3.9473      0.00000
     23       4.0024      0.00000
     24       5.2129      0.00000
     25       8.8355      0.00000
     26       9.1016      0.00000
     27       9.3461      0.00000
     28       9.9926      0.00000

 k-point     6 :       0.4167    0.4167    0.0833
  band No.  band energies     occupation 
      1     -51.1430      1.00000
      2     -51.1430      1.00000
      3     -51.1423      1.00000
      4     -31.4282      1.00000
      5     -14.9266      1.00000
      6     -14.7192      1.00000
      7     -14.4230      1.00000
      8     -13.4155      1.00000
      9     -13.1701      1.00000
     10     -13.1611      1.00000
     11      -3.0332      1.00000
     12      -1.7412      1.00000
     13      -1.7311      1.00000
     14      -1.1754      1.00000
     15      -0.4299      1.00000
     16      -0.3492      1.00000
     17       0.5434      1.00000
     18       0.5900      1.00000
     19       1.6716     -0.00280
     20       3.8824      0.00000
     21       3.9534      0.00000
     22       3.9673      0.00000
     23       4.1324      0.00000
     24       5.8523      0.00000
     25       8.9367      0.00000
     26       9.2706      0.00000
     27       9.9871      0.00000
     28      10.0194      0.00000

 k-point     7 :       0.2500    0.2500    0.2500
  band No.  band energies     occupation 
      1     -51.1426      1.00000
      2     -51.1426      1.00000
      3     -51.1426      1.00000
      4     -31.4326      1.00000
      5     -15.1554      1.00000
      6     -14.4111      1.00000
      7     -14.4111      1.00000
      8     -13.3606      1.00000
      9     -13.3606      1.00000
     10     -13.1731      1.00000
     11      -2.7087      1.00000
     12      -1.5946      1.00000
     13      -1.5946      1.00000
     14      -0.8859      1.00000
     15      -0.5551      1.00000
     16      -0.5551      1.00000
     17       1.0170      1.00268
     18       1.0170      1.00378
     19       1.3446      0.92308
     20       3.7212      0.00000
     21       3.7920      0.00000
     22       3.7920      0.00000
     23       4.6963      0.00000
     24       4.6963      0.00000
     25       8.5480      0.00000
     26       8.7081      0.00000
     27       8.7106      0.00000
     28       9.9079      0.00000

 k-point     8 :       0.4167    0.2500    0.2500
  band No.  band energies     occupation 
      1     -51.1430      1.00000
      2     -51.1427      1.00000
      3     -51.1426      1.00000
      4     -31.4284      1.00000
      5     -15.0267      1.00000
      6     -14.5780      1.00000
      7     -14.2929      1.00000
      8     -13.4861      1.00000
      9     -13.2766      1.00000
     10     -13.1966      1.00000
     11      -2.9884      1.00000
     12      -1.6462      1.00000
     13      -1.5393      1.00000
     14      -1.2905      1.00000
     15      -0.8961      1.00000
     16      -0.5578      1.00000
     17       1.0352      1.01041
     18       1.1033      1.00958
     19       1.4233      0.60405
     20       3.7978      0.00000
     21       4.0113      0.00000
     22       4.0435      0.00000
     23       4.6629      0.00000
     24       5.3446      0.00000
     25       8.8665      0.00000
     26       9.0595      0.00000
     27       9.1084      0.00000
     28       9.6261      0.00000

 k-point     9 :       0.4167    0.4167    0.2500
  band No.  band energies     occupation 
      1     -51.1429      1.00000
      2     -51.1429      1.00000
      3     -51.1425      1.00000
      4     -31.4243      1.00000
      5     -14.7873      1.00000
      6     -14.5873      1.00000
      7     -14.3858      1.00000
      8     -13.5032      1.00000
      9     -13.3330      1.00000
     10     -13.2763      1.00000
     11      -3.3099      1.00000
     12      -1.7216      1.00000
     13      -1.5188      1.00000
     14      -1.5001      1.00000
     15      -0.9196      1.00000
     16      -0.9070      1.00000
     17       1.2059      0.99931
     18       1.2399      0.99274
     19       1.7019     -0.06023
     20       4.0503      0.00000
     21       4.0673      0.00000
     22       4.1752      0.00000
     23       4.9288      0.00000
     24       5.8459      0.00000
     25       8.6379      0.00000
     26       8.9577      0.00000
     27       9.0329      0.00000
     28       9.8077      0.00000

 k-point    10 :       0.4167    0.4167    0.4167
  band No.  band energies     occupation 
      1     -51.1430      1.00000
      2     -51.1430      1.00000
      3     -51.1428      1.00000
      4     -31.4205      1.00000
      5     -14.5784      1.00000
      6     -14.4115      1.00000
      7     -14.4115      1.00000
      8     -13.5419      1.00000
      9     -13.5419      1.00000
     10     -13.4442      1.00000
     11      -3.6467      1.00000
     12      -1.7097      1.00000
     13      -1.7097      1.00000
     14      -1.2989      1.00000
     15      -1.1865      1.00000
     16      -1.1865      1.00000
     17       1.6560      0.30088
     18       1.6560      0.25161
     19       1.7597     -0.02136
     20       4.2085      0.00000
     21       4.2249      0.00000
     22       4.2249      0.00000
     23       5.8318      0.00000
     24       5.8319      0.00000
     25       8.2698      0.00000
     26       8.3692      0.00000
     27       8.3695      0.00000
     28      10.4592      0.00000


--------------------------------------------------------------------------------------------------------


 soft charge-density along one line, spin component           1
         0         1         2         3         4         5         6         7         8         9
 total charge-density along one line
 
 soft charge-density along one line, spin component           2
         0         1         2         3         4         5         6         7         8         9
 total charge-density along one line
 
 pseudopotential strength for first ion, spin component:           1
-11.187  -8.161   0.000   0.000   0.000   0.000   0.000   0.000
 -8.161  -6.058   0.000   0.000   0.000   0.000   0.000   0.000
  0.000   0.000 -14.935   0.000   0.000   0.124   0.000   0.000
  0.000   0.000   0.000 -14.935   0.000   0.000   0.124   0.000
  0.000   0.000   0.000   0.000 -14.935   0.000   0.000   0.124
  0.000   0.000   0.124   0.000   0.000   0.046   0.000   0.000
  0.000   0.000   0.000   0.124   0.000   0.000   0.046   0.000
  0.000   0.000   0.000   0.000   0.124   0.000   0.000   0.046
  0.000   0.000   0.000   0.000   0.000   0.000   0.000   0.000
  0.000   0.000   0.000   0.000   0.000   0.000   0.000   0.000
  0.000   0.000   0.000   0.000   0.000   0.000   0.000   0.000
  0.000   0.000   0.000   0.000   0.000   0.000   0.000   0.000
  0.000   0.000   0.000   0.000   0.000   0.000   0.000   0.000
  0.000   0.000   0.000   0.000   0.000   0.000   0.000   0.000
  0.000   0.000   0.000   0.000   0.000   0.000   0.000   0.000
  0.000   0.000   0.000   0.000   0.000   0.000   0.000   0.000
  0.000   0.000   0.000   0.000   0.000   0.000   0.000   0.000
  0.000   0.000   0.000   0.000   0.000   0.000   0.000   0.000
 pseudopotential strength for first ion, spin component:           2
-11.187  -8.160   0.000   0.000   0.000   0.000   0.000   0.000
 -8.160  -6.058   0.000   0.000   0.000   0.000   0.000   0.000
  0.000   0.000 -14.934   0.000   0.000   0.124   0.000   0.000
  0.000   0.000   0.000 -14.934   0.000   0.000   0.124   0.000
  0.000   0.000   0.000   0.000 -14.934   0.000   0.000   0.124
  0.000   0.000   0.124   0.000   0.000   0.046   0.000   0.000
  0.000   0.000   0.000   0.124   0.000   0.000   0.046   0.000
  0.000   0.000   0.000   0.000   0.124   0.000   0.000   0.046
  0.000   0.000   0.000   0.000   0.000   0.000   0.000   0.000
  0.000   0.000   0.000   0.000   0.000   0.000   0.000   0.000
  0.000   0.000   0.000   0.000   0.000   0.000   0.000   0.000
  0.000   0.000   0.000   0.000   0.000   0.000   0.000   0.000
  0.000   0.000   0.000   0.000   0.000   0.000   0.000   0.000
  0.000   0.000   0.000   0.000   0.000   0.000   0.000   0.000
  0.000   0.000   0.000   0.000   0.000   0.000   0.000   0.000
  0.000   0.000   0.000   0.000   0.000   0.000   0.000   0.000
  0.000   0.000   0.000   0.000   0.000   0.000   0.000   0.000
  0.000   0.000   0.000   0.000   0.000   0.000   0.000   0.000
 total augmentation occupancy for first ion, spin component:           1
  2.097  -0.200   0.000   0.000   0.000   0.000   0.000   0.000   0.000   0.000   0.000   0.000   0.000   0.000   0.000   0.000
 -0.200   0.392   0.000   0.000   0.000   0.000   0.000   0.000   0.000   0.000   0.000   0.000   0.000   0.000   0.000   0.000
  0.000   0.000   2.024   0.000   0.000   0.083   0.000   0.000   0.000   0.000   0.000   0.000   0.000   0.000   0.000   0.000
  0.000   0.000   0.000   2.024   0.000   0.000   0.083   0.000   0.000   0.000   0.000   0.000   0.000   0.000   0.000   0.000
  0.000   0.000   0.000   0.000   2.024   0.000   0.000   0.083   0.000   0.000   0.000   0.000   0.000   0.000   0.000   0.000
  0.000   0.000   0.083   0.000   0.000   0.222   0.000   0.000   0.000   0.000   0.000   0.000   0.000   0.000   0.000   0.000
  0.000   0.000   0.000   0.083   0.000   0.000   0.222   0.000   0.000   0.000   0.000   0.000   0.000   0.000   0.000   0.000
  0.000   0.000   0.000   0.000   0.083   0.000   0.000   0.222   0.000   0.000   0.000   0.000   0.000   0.000   0.000   0.000
  0.000   0.000   0.000   0.000   0.000   0.000   0.000   0.000   0.069   0.000   0.000   0.000   0.000  -0.283   0.000   0.000
  0.000   0.000   0.000   0.000   0.000   0.000   0.000   0.000   0.000   0.069   0.000   0.000   0.000   0.000  -0.283   0.000
  0.000   0.000   0.000   0.000   0.000   0.000   0.000   0.000   0.000   0.000   0.048   0.000   0.000   0.000   0.000  -0.190
  0.000   0.000   0.000   0.000   0.000   0.000   0.000   0.000   0.000   0.000   0.000   0.069   0.000   0.000   0.000   0.000
  0.000   0.000   0.000   0.000   0.000   0.000   0.000   0.000   0.000   0.000   0.000   0.000   0.048   0.000   0.000   0.000
  0.000   0.000   0.000   0.000   0.000   0.000   0.000   0.000  -0.283   0.000   0.000   0.000   0.000   1.231   0.000   0.000
  0.000   0.000   0.000   0.000   0.000   0.000   0.000   0.000   0.000  -0.283   0.000   0.000   0.000   0.000   1.231   0.000
  0.000   0.000   0.000   0.000   0.000   0.000   0.000   0.000   0.000   0.000  -0.190   0.000   0.000   0.000   0.000   0.794
  0.000   0.000   0.000   0.000   0.000   0.000   0.000   0.000   0.000   0.000   0.000  -0.283   0.000   0.000   0.000   0.000
  0.000   0.000   0.000   0.000   0.000   0.000   0.000   0.000   0.000   0.000   0.000   0.000  -0.190   0.000   0.000   0.000
 total augmentation occupancy for first ion, spin component:           2
  0.000  -0.001   0.000   0.000   0.000   0.000   0.000   0.000   0.000   0.000   0.000   0.000   0.000   0.000   0.000   0.000
 -0.001   0.002   0.000   0.000   0.000   0.000   0.000   0.000   0.000   0.000   0.000   0.000   0.000   0.000   0.000   0.000
  0.000   0.000   0.000   0.000   0.000   0.000   0.000   0.000   0.000   0.000   0.000   0.000   0.000   0.000   0.000   0.000
  0.000   0.000   0.000   0.000   0.000   0.000   0.000   0.000   0.000   0.000   0.000   0.000   0.000   0.000   0.000   0.000
  0.000   0.000   0.000   0.000   0.000   0.000   0.000   0.000   0.000   0.000   0.000   0.000   0.000   0.000   0.000   0.000
  0.000   0.000   0.000   0.000   0.000  -0.001   0.000   0.000   0.000   0.000   0.000   0.000   0.000   0.000   0.000   0.000
  0.000   0.000   0.000   0.000   0.000   0.000  -0.001   0.000   0.000   0.000   0.000   0.000   0.000   0.000   0.000   0.000
  0.000   0.000   0.000   0.000   0.000   0.000   0.000  -0.001   0.000   0.000   0.000   0.000   0.000   0.000   0.000   0.000
  0.000   0.000   0.000   0.000   0.000   0.000   0.000   0.000  -0.002   0.000   0.000   0.000   0.000   0.006   0.000   0.000
  0.000   0.000   0.000   0.000   0.000   0.000   0.000   0.000   0.000  -0.002   0.000   0.000   0.000   0.000   0.006   0.000
  0.000   0.000   0.000   0.000   0.000   0.000   0.000   0.000   0.000   0.000   0.002   0.000   0.000   0.000   0.000  -0.008
  0.000   0.000   0.000   0.000   0.000   0.000   0.000   0.000   0.000   0.000   0.000  -0.002   0.000   0.000   0.000   0.000
  0.000   0.000   0.000   0.000   0.000   0.000   0.000   0.000   0.000   0.000   0.000   0.000   0.002   0.000   0.000   0.000
  0.000   0.000   0.000   0.000   0.000   0.000   0.000   0.000   0.006   0.000   0.000   0.000   0.000  -0.017   0.000   0.000
  0.000   0.000   0.000   0.000   0.000   0.000   0.000   0.000   0.000   0.006   0.000   0.000   0.000   0.000  -0.017   0.000
  0.000   0.000   0.000   0.000   0.000   0.000   0.000   0.000   0.000   0.000  -0.008   0.000   0.000   0.000   0.000   0.035
  0.000   0.000   0.000   0.000   0.000   0.000   0.000   0.000   0.000   0.000   0.000   0.006   0.000   0.000   0.000   0.000
  0.000   0.000   0.000   0.000   0.000   0.000   0.000   0.000   0.000   0.000   0.000   0.000  -0.008   0.000   0.000   0.000


------------------------ aborting loop because EDIFF is reached ----------------------------------------


    CHARGE:  cpu time    0.0220: real time    0.0218
    FORLOC:  cpu time    0.0000: real time    0.0007
    FORNL :  cpu time    0.1020: real time    0.1014
    FORCOR:  cpu time    0.0690: real time    0.0691
    FORHAR:  cpu time    0.0020: real time    0.0026
    MIXING:  cpu time    0.0010: real time    0.0008
    OFIELD:  cpu time    0.0000: real time    0.0000

 VOLUME and BASIS-vectors are now :
 -----------------------------------------------------------------------------
  energy-cutoff  :      300.00
  volume of cell :       68.92
      direct lattice vectors                 reciprocal lattice vectors
     4.100000000  0.000000000  0.000000000     0.243902439  0.000000000  0.000000000
     0.000000000  4.100000000  0.000000000     0.000000000  0.243902439  0.000000000
     0.000000000  0.000000000  4.100000000     0.000000000  0.000000000  0.243902439

  length of vectors
     4.100000000  4.100000000  4.100000000     0.243902439  0.243902439  0.243902439


 FORCES acting on ions
    electron-ion (+dipol)            ewald-force                    non-local-force                 convergence-correction
 -----------------------------------------------------------------------------------------------
   0.769E-13 -.117E-11 -.232E-12   0.624E-14 0.342E-14 0.658E-14   0.000E+00 0.000E+00 0.000E+00   -.226E-13 0.327E-14 0.717E-13
   0.995E-13 -.275E-13 0.403E-13   0.485E-14 0.102E-13 0.103E-13   0.000E+00 0.000E+00 0.000E+00   0.151E-12 0.824E-13 0.140E-12
   0.160E-12 0.171E-13 0.262E-11   -.761E-14 -.348E-14 -.405E-14   0.000E+00 0.000E+00 0.000E+00   0.289E-13 0.302E-13 0.258E-13
   0.208E-13 0.138E-12 0.158E-13   0.113E-15 -.118E-13 -.410E-14   0.000E+00 0.000E+00 0.000E+00   -.347E-14 0.334E-13 0.558E-13
   0.155E-13 0.284E-13 0.199E-12   -.552E-14 0.538E-15 -.699E-14   0.000E+00 0.000E+00 0.000E+00   0.362E-13 0.962E-14 -.429E-13
 -----------------------------------------------------------------------------------------------
   0.373E-12 -.101E-11 0.265E-11   -.192E-14 -.115E-14 0.175E-14   0.000E+00 0.000E+00 0.000E+00   0.190E-12 0.159E-12 0.251E-12
 
 
 POSITION                                       TOTAL-FORCE (eV/Angst)
 -----------------------------------------------------------------------------------
      2.05000      2.05000      2.05000         0.000000      0.000000      0.000000
      0.00000      0.00000      0.00000         0.000000      0.000000      0.000000
      2.05000      0.00000      0.00000         0.000000      0.000000      0.000000
      0.00000      2.05000      0.00000         0.000000      0.000000      0.000000
      0.00000      0.00000      2.05000         0.000000      0.000000      0.000000
 -----------------------------------------------------------------------------------
    total drift:                                0.000000      0.000000      0.000000


--------------------------------------------------------------------------------------------------------



  FREE ENERGIE OF THE ION-ELECTRON SYSTEM (eV)
  ---------------------------------------------------
  free  energy   TOTEN  =       -31.04874623 eV

  energy  without entropy=      -31.04874623  energy(sigma->0) =      -31.04874623
 


--------------------------------------------------------------------------------------------------------


    POTLOK:  cpu time    0.0690: real time    0.0685


--------------------------------------------------------------------------------------------------------


 stress matrix after NEB project (eV)
      0.00000      0.00000      0.00000
      0.00000      0.00000      0.00000
      0.00000      0.00000      0.00000
  FORCES: max atom, RMS     0.000000    0.000000
  FORCE total and by dimension    0.000000    0.000000
  Stress total and by dimension    0.000000    0.000000
 Quasi-Newton relaxation of ions (Broydens 2nd method)
  g(Force)  = 0.000E+00   g(Stress)= 0.000E+00

 Reset! Starting new Quasi-Newton update for ions 


--------------------------------------------------------------------------------------------------------


  
 reached required accuracy - stopping structural energy minimisation
     LOOP+:  cpu time    6.4940: real time    6.5304
    4ORBIT:  cpu time    0.0000: real time    0.0000

 total amount of memory used by VASP on root node    32469. kBytes
========================================================================

   base      :      30000. kBytes
   nonlr-proj:        369. kBytes
   fftplans  :        271. kBytes
   grid      :        728. kBytes
   one-center:         62. kBytes
   wavefun   :       1039. kBytes
 
  
  
 General timing and accounting informations for this job:
 ========================================================
  
                  Total CPU time used (sec):        7.830
                            User time (sec):        7.623
                          System time (sec):        0.207
                         Elapsed time (sec):        7.986
  
                   Maximum memory used (kb):       34932.
                   Average memory used (kb):           0.
  
                          Minor page faults:         5646
                          Major page faults:            8
                 Voluntary context switches:         1088
