<?xml version="1.0" encoding="ISO-8859-1"?>
<modeling>
 <generator>
  <i name="program" type="string">vasp </i>
  <i name="version" type="string">5.4.1  </i>
  <i name="subversion" type="string">24Jun15 (build Jan 06 2016 13:10:00) complex                          parallel </i>
  <i name="platform" type="string">IFC91_ompi </i>
  <i name="date" type="string">2016 02 25 </i>
  <i name="time" type="string">14:51:47 </i>
 </generator>
 <incar>
  <i type="string" name="PREC">normal</i>
  <i type="string" name="ALGO"> Fast</i>
  <i type="int" name="ISPIN">     2</i>
  <i type="int" name="NELM">   100</i>
  <i type="int" name="IBRION">     1</i>
  <i name="EDIFF">      0.00100000</i>
  <i name="EDIFFG">     -0.01000000</i>
  <i type="int" name="NSW">    99</i>
  <i type="int" name="ISIF">     0</i>
  <i name="ENCUT">    300.00000000</i>
  <i type="string" name="LREAL">Auto</i>
  <i type="int" name="ISMEAR">    -5</i>
  <i name="SIGMA">      0.05000000</i>
  <i type="int" name="LMAXMIX">     4</i>
  <i type="logical" name="LWAVE"> F  </i>
  <v type="int" name="KPOINT_BSE">    -1     0     0     0</v>
  <i type="int" name="NELM">   100</i>
  <i type="logical" name="LDAU"> T  </i>
  <v type="int" name="LDAUTYPE">     2</v>
  <v type="int" name="LDAUL">     0     2     0</v>
  <v name="LDAUU">      0.00000000      5.30000000      0.00000000</v>
  <v name="LDAUJ">      0.00000000      0.00000000      0.00000000</v>
  <i type="int" name="LDAUPRINT">     1</i>
 </incar>
 <kpoints>
  <generation param="Monkhorst-Pack">
   <v type="int" name="divisions">       6        6        6 </v>
   <v name="usershift">      0.00000000       0.00000000       0.00000000 </v>
   <v name="genvec1">      0.16666667       0.00000000       0.00000000 </v>
   <v name="genvec2">      0.00000000       0.16666667       0.00000000 </v>
   <v name="genvec3">      0.00000000       0.00000000       0.16666667 </v>
   <v name="shift">      0.50000000       0.50000000       0.50000000 </v>
  </generation>
  <varray name="kpointlist" >
   <v>       0.08333333       0.08333333       0.08333333 </v>
   <v>       0.25000000       0.08333333       0.08333333 </v>
   <v>       0.41666667       0.08333333       0.08333333 </v>
   <v>       0.25000000       0.25000000       0.08333333 </v>
   <v>       0.41666667       0.25000000       0.08333333 </v>
   <v>       0.41666667       0.41666667       0.08333333 </v>
   <v>       0.25000000       0.25000000       0.25000000 </v>
   <v>       0.41666667       0.25000000       0.25000000 </v>
   <v>       0.41666667       0.41666667       0.25000000 </v>
   <v>       0.41666667       0.41666667       0.41666667 </v>
  </varray>
  <varray name="weights" >
   <v>       0.03703704 </v>
   <v>       0.11111111 </v>
   <v>       0.11111111 </v>
   <v>       0.11111111 </v>
   <v>       0.22222222 </v>
   <v>       0.11111111 </v>
   <v>       0.03703704 </v>
   <v>       0.11111111 </v>
   <v>       0.11111111 </v>
   <v>       0.03703704 </v>
  </varray>
  <varray name="tetrahedronlist"  type="int" >
   <v type="int" >       24        1        2        2        4 </v>
   <v type="int" >       18        2        2        4        4 </v>
   <v type="int" >       12        2        4        4        7 </v>
   <v type="int" >       12        2        3        4        5 </v>
   <v type="int" >       24        2        4        4        5 </v>
   <v type="int" >       12        4        4        5        7 </v>
   <v type="int" >       24        3        4        5        5 </v>
   <v type="int" >       24        4        5        5        8 </v>
   <v type="int" >       24        4        5        7        8 </v>
   <v type="int" >       30        3        3        5        5 </v>
   <v type="int" >       36        3        5        5        5 </v>
   <v type="int" >       12        5        5        5        8 </v>
   <v type="int" >        6        5        5        8        8 </v>
   <v type="int" >       18        1        1        2        2 </v>
   <v type="int" >       24        1        2        2        2 </v>
   <v type="int" >       12        2        2        2        4 </v>
   <v type="int" >       12        4        5        6        7 </v>
   <v type="int" >       12        5        6        7        8 </v>
   <v type="int" >       12        6        7        8        9 </v>
   <v type="int" >       24        5        5        6        8 </v>
   <v type="int" >       12        5        6        6        8 </v>
   <v type="int" >       12        6        6        8        9 </v>
   <v type="int" >       12        5        6        8        8 </v>
   <v type="int" >       12        6        8        8        9 </v>
   <v type="int" >       12        6        8        9        9 </v>
   <v type="int" >       12        5        6        8        9 </v>
   <v type="int" >       12        5        7        8        8 </v>
   <v type="int" >       24        5        8        8        9 </v>
   <v type="int" >       12        2        3        4        7 </v>
   <v type="int" >       12        3        4        5        7 </v>
   <v type="int" >       12        3        5        7        8 </v>
   <v type="int" >       12        2        2        3        4 </v>
   <v type="int" >       12        2        3        3        4 </v>
   <v type="int" >       12        3        3        4        5 </v>
   <v type="int" >       12        2        3        4        4 </v>
   <v type="int" >       12        3        4        4        5 </v>
   <v type="int" >       12        6        6        6        9 </v>
   <v type="int" >       12        6        6        9        9 </v>
   <v type="int" >       12        6        9        9        9 </v>
   <v type="int" >       12        5        5        6        9 </v>
   <v type="int" >       12        5        6        6        9 </v>
   <v type="int" >       12        5        6        9        9 </v>
   <v type="int" >       12        5        5        8        9 </v>
   <v type="int" >       12        5        8        9        9 </v>
   <v type="int" >       12        3        3        5        8 </v>
   <v type="int" >       12        3        5        5        8 </v>
   <v type="int" >       12        3        5        8        8 </v>
   <v type="int" >       24        3        3        3        5 </v>
   <v type="int" >       12        4        5        6        9 </v>
   <v type="int" >       12        4        5        8        9 </v>
   <v type="int" >       12        4        7        8        9 </v>
   <v type="int" >       12        2        3        5        8 </v>
   <v type="int" >       12        2        4        5        8 </v>
   <v type="int" >       12        2        4        7        8 </v>
   <v type="int" >       12        2        3        3        5 </v>
   <v type="int" >       12        2        2        3        5 </v>
   <v type="int" >       12        2        2        4        5 </v>
   <v type="int" >       12        2        3        5        5 </v>
   <v type="int" >       12        2        4        5        5 </v>
   <v type="int" >       12        1        2        4        7 </v>
   <v type="int" >       12        1        1        2        4 </v>
   <v type="int" >       12        1        2        4        4 </v>
   <v type="int" >       12        1        1        1        2 </v>
   <v type="int" >       12        7        8        8        9 </v>
   <v type="int" >       18        8        8        9        9 </v>
   <v type="int" >       24        8        9        9       10 </v>
   <v type="int" >       12        8        9        9        9 </v>
   <v type="int" >       24        9        9        9       10 </v>
   <v type="int" >       18        9        9       10       10 </v>
   <v type="int" >        6        4        4        5        5 </v>
   <v type="int" >       12        4        5        5        5 </v>
   <v type="int" >       36        5        5        5        6 </v>
   <v type="int" >       30        5        5        6        6 </v>
   <v type="int" >       12        9       10       10       10 </v>
   <v type="int" >       12        8        8        9       10 </v>
   <v type="int" >       12        8        9       10       10 </v>
   <v type="int" >       24        5        6        6        6 </v>
   <v type="int" >       12        7        8        9       10 </v>
   <v type="int" >       12        4        5        5        6 </v>
   <v type="int" >       12        4        4        5        6 </v>
   <v type="int" >       12        4        5        6        6 </v>
   <v type="int" >       12        2        2        2        3 </v>
   <v type="int" >       12        2        2        3        3 </v>
   <v type="int" >       12        2        3        3        3 </v>
   <v type="int" >        6       10       10       10       10 </v>
   <v type="int" >       18        6        6        6        6 </v>
   <v type="int" >       18        3        3        3        3 </v>
   <v type="int" >        6        1        1        1        1 </v>
  </varray>
  <i name="volumeweight">      0.00077160 </i>
 </kpoints>
 <parameters>
  <separator name="general" >
   <i type="string" name="SYSTEM">unknown system</i>
   <i type="logical" name="LCOMPAT"> F  </i>
  </separator>
  <separator name="electronic" >
   <i type="string" name="PREC">normal</i>
   <i name="ENMAX">    300.00000000</i>
   <i name="ENAUG">    578.34200000</i>
   <i name="EDIFF">      0.00100000</i>
   <i type="int" name="IALGO">    68</i>
   <i type="int" name="IWAVPR">    11</i>
   <i type="int" name="NBANDS">    28</i>
   <i name="NELECT">     42.00000000</i>
   <i type="int" name="TURBO">     0</i>
   <i type="int" name="IRESTART">     0</i>
   <i type="int" name="NREBOOT">     0</i>
   <i type="int" name="NMIN">     0</i>
   <i name="EREF">      0.00000000</i>
   <separator name="electronic smearing" >
    <i type="int" name="ISMEAR">    -5</i>
    <i name="SIGMA">      0.05000000</i>
    <i name="KSPACING">      0.50000000</i>
    <i type="logical" name="KGAMMA"> T  </i>
   </separator>
   <separator name="electronic projectors" >
    <i type="logical" name="LREAL"> T  </i>
    <v name="ROPT">     -0.00050000     -0.00050000     -0.00050000</v>
    <i type="int" name="LMAXPAW">  -100</i>
    <i type="int" name="LMAXMIX">     4</i>
    <i type="logical" name="NLSPLINE"> F  </i>
   </separator>
   <separator name="electronic startup" >
    <i type="int" name="ISTART">     0</i>
    <i type="int" name="ICHARG">     2</i>
    <i type="int" name="INIWAV">     1</i>
   </separator>
   <separator name="electronic spin" >
    <i type="int" name="ISPIN">     2</i>
    <i type="logical" name="LNONCOLLINEAR"> F  </i>
    <v name="MAGMOM">      1.00000000      1.00000000      1.00000000      1.00000000      1.00000000</v>
    <i name="NUPDOWN">     -1.00000000</i>
    <i type="logical" name="LSORBIT"> F  </i>
    <v name="SAXIS">      0.00000000      0.00000000      1.00000000</v>
    <i type="logical" name="LSPIRAL"> F  </i>
    <v name="QSPIRAL">      0.00000000      0.00000000      0.00000000</v>
    <i type="logical" name="LZEROZ"> F  </i>
   </separator>
   <separator name="electronic exchange-correlation" >
    <i type="logical" name="LASPH"> F  </i>
    <i type="logical" name="LMETAGGA"> F  </i>
   </separator>
   <separator name="electronic convergence" >
    <i type="int" name="NELM">   100</i>
    <i type="int" name="NELMDL">    -5</i>
    <i type="int" name="NELMIN">     2</i>
    <i name="ENINI">    300.00000000</i>
    <separator name="electronic convergence detail" >
     <i type="logical" name="LDIAG"> T  </i>
     <i type="logical" name="LSUBROT"> F  </i>
     <i name="WEIMIN">      0.00100000</i>
     <i name="EBREAK">      0.00000893</i>
     <i name="DEPER">      0.30000000</i>
     <i type="int" name="NRMM">     4</i>
     <i name="TIME">      0.40000000</i>
    </separator>
   </separator>
   <separator name="electronic mixer" >
    <i name="AMIX">      0.40000000</i>
    <i name="BMIX">      1.00000000</i>
    <i name="AMIN">      0.10000000</i>
    <i name="AMIX_MAG">      1.60000000</i>
    <i name="BMIX_MAG">      1.00000000</i>
    <separator name="electronic mixer details" >
     <i type="int" name="IMIX">     4</i>
     <i type="logical" name="MIXFIRST"> F  </i>
     <i type="int" name="MAXMIX">   -45</i>
     <i name="WC">    100.00000000</i>
     <i type="int" name="INIMIX">     1</i>
     <i type="int" name="MIXPRE">     1</i>
     <i type="int" name="MREMOVE">     5</i>
    </separator>
   </separator>
   <separator name="electronic dipolcorrection" >
    <i type="logical" name="LDIPOL"> F  </i>
    <i type="logical" name="LMONO"> F  </i>
    <i type="int" name="IDIPOL">     0</i>
    <i name="EPSILON">      1.00000000</i>
    <v name="DIPOL">   -100.00000000   -100.00000000   -100.00000000</v>
    <i name="EFIELD">      0.00000000</i>
   </separator>
  </separator>
  <separator name="grids" >
   <i type="int" name="NGX">    18</i>
   <i type="int" name="NGY">    18</i>
   <i type="int" name="NGZ">    18</i>
   <i type="int" name="NGXF">    36</i>
   <i type="int" name="NGYF">    36</i>
   <i type="int" name="NGZF">    36</i>
   <i type="logical" name="ADDGRID"> F  </i>
  </separator>
  <separator name="ionic" >
   <i type="int" name="NSW">    99</i>
   <i type="int" name="IBRION">     1</i>
   <i type="int" name="ISIF">     0</i>
   <i name="PSTRESS">      0.00000000</i>
   <i name="EDIFFG">     -0.01000000</i>
   <i type="int" name="NFREE">     0</i>
   <i name="POTIM">      0.50000000</i>
   <i name="SMASS">     -3.00000000</i>
   <i name="SCALEE">      1.00000000</i>
  </separator>
  <separator name="ionic md" >
   <i name="TEBEG">      0.00010000</i>
   <i name="TEEND">      0.00010000</i>
   <i type="int" name="NBLOCK">     1</i>
   <i type="int" name="KBLOCK">    99</i>
   <i type="int" name="NPACO">   256</i>
   <i name="APACO">     16.00000000</i>
  </separator>
  <separator name="symmetry" >
   <i type="int" name="ISYM">     2</i>
   <i name="SYMPREC">      0.00001000</i>
  </separator>
  <separator name="dos" >
   <i type="logical" name="LORBIT"> F  </i>
   <v name="RWIGS">     -1.00000000     -1.00000000     -1.00000000</v>
   <i type="int" name="NEDOS">   301</i>
   <i name="EMIN">     10.00000000</i>
   <i name="EMAX">    -10.00000000</i>
   <i name="EFERMI">      0.00000000</i>
  </separator>
  <separator name="writing" >
   <i type="int" name="NWRITE">     2</i>
   <i type="logical" name="LWAVE"> F  </i>
   <i type="logical" name="LCHARG"> T  </i>
   <i type="logical" name="LPARD"> F  </i>
   <i type="logical" name="LVTOT"> F  </i>
   <i type="logical" name="LVHAR"> F  </i>
   <i type="logical" name="LELF"> F  </i>
   <i type="logical" name="LOPTICS"> F  </i>
   <v name="STM">      0.00000000      0.00000000      0.00000000      0.00000000      0.00000000      0.00000000      0.00000000</v>
  </separator>
  <separator name="performance" >
   <i type="int" name="NPAR">     2</i>
   <i type="int" name="NSIM">     4</i>
   <i type="int" name="NBLK">    -1</i>
   <i type="logical" name="LPLANE"> T  </i>
   <i type="logical" name="LSCALAPACK"> T  </i>
   <i type="logical" name="LSCAAWARE"> F  </i>
   <i type="logical" name="LSCALU"> F  </i>
   <i type="logical" name="LASYNC"> F  </i>
   <i type="logical" name="LORBITALREAL"> F  </i>
  </separator>
  <separator name="miscellaneous" >
   <i type="int" name="IDIOT">     3</i>
   <i type="logical" name="LMUSIC"> F  </i>
   <v name="POMASS">     87.62000000     55.84700000     16.00000000</v>
   <v name="DARWINR">      0.00000000      0.00000000      0.00000000</v>
   <v name="DARWINV">      1.00000000      1.00000000      1.00000000</v>
   <i type="logical" name="LCORR"> T  </i>
  </separator>
  <i type="logical" name="GGA_COMPAT"> T  </i>
  <i type="logical" name="LBERRY"> F  </i>
  <i type="int" name="ICORELEVEL">     0</i>
  <i type="logical" name="LDAU"> T  </i>
  <v type="int" name="LDAUTYPE">     2</v>
  <v type="int" name="LDAUL">     0</v>
  <v name="LDAUU">      0.00000000</v>
  <v name="LDAUJ">      0.00000000</v>
  <i type="int" name="LDAUPRINT">     1</i>
  <i type="int" name="I_CONSTRAINED_M">     0</i>
  <separator name="electronic exchange-correlation" >
   <i type="string" name="GGA">--</i>
   <i type="int" name="VOSKOWN">     0</i>
   <i type="logical" name="LHFCALC"> F  </i>
   <i type="string" name="PRECFOCK"></i>
   <i type="logical" name="LSYMGRAD"> F  </i>
   <i type="logical" name="LHFONE"> F  </i>
   <i type="logical" name="LRHFCALC"> F  </i>
   <i type="logical" name="LTHOMAS"> F  </i>
   <i type="logical" name="LMODELHF"> F  </i>
   <i name="ENCUT4O">     -1.00000000</i>
   <i type="int" name="EXXOEP">     0</i>
   <i type="int" name="FOURORBIT">     0</i>
   <i name="AEXX">      0.00000000</i>
   <i name="HFALPHA">      0.00000000</i>
   <i name="MCALPHA">      0.00000000</i>
   <i name="ALDAX">      1.00000000</i>
   <i name="AGGAX">      1.00000000</i>
   <i name="ALDAC">      1.00000000</i>
   <i name="AGGAC">      1.00000000</i>
   <i type="int" name="NKREDX">     1</i>
   <i type="int" name="NKREDY">     1</i>
   <i type="int" name="NKREDZ">     1</i>
   <i type="logical" name="SHIFTRED"> F  </i>
   <i type="logical" name="ODDONLY"> F  </i>
   <i type="logical" name="EVENONLY"> F  </i>
   <i type="int" name="LMAXFOCK">     0</i>
   <i type="int" name="NMAXFOCKAE">     0</i>
   <i type="logical" name="LFOCKAEDFT"> F  </i>
   <i name="HFSCREEN">      0.00000000</i>
   <i name="HFSCREENC">      0.00000000</i>
   <i type="int" name="NBANDSGWLOW">     0</i>
  </separator>
  <separator name="vdW DFT" >
   <i type="logical" name="LUSE_VDW"> F  </i>
   <i name="Zab_VDW">     -0.84910000</i>
   <i name="PARAM1">      0.12340000</i>
   <i name="PARAM2">      1.00000000</i>
   <i name="PARAM3">      0.00000000</i>
  </separator>
  <separator name="model GW" >
   <i type="int" name="MODEL_GW">     0</i>
   <i name="MODEL_EPS0">      8.27052000</i>
   <i name="MODEL_ALPHA">      1.00000000</i>
  </separator>
  <separator name="linear response parameters" >
   <i type="logical" name="LEPSILON"> F  </i>
   <i type="logical" name="LRPA"> F  </i>
   <i type="logical" name="LNABLA"> F  </i>
   <i type="logical" name="LVEL"> F  </i>
   <i type="int" name="KINTER">     0</i>
   <i name="CSHIFT">      0.10000000</i>
   <i name="OMEGAMAX">     -1.00000000</i>
   <i name="DEG_THRESHOLD">      0.00200000</i>
  </separator>
  <separator name="orbital magnetization" >
   <i type="logical" name="NUCIND"> F  </i>
   <v name="MAGPOS">      0.00000000      0.00000000      0.00000000</v>
   <i type="logical" name="LNICSALL"> T  </i>
   <i type="logical" name="ORBITALMAG"> F  </i>
   <i type="logical" name="LMAGBLOCH"> F  </i>
   <i type="logical" name="LCHIMAG"> F  </i>
   <i type="logical" name="LGAUGE"> T  </i>
   <i type="int" name="MAGATOM">     0</i>
   <v name="MAGDIPOL">      0.00000000      0.00000000      0.00000000</v>
   <v name="AVECCONST">      0.00000000      0.00000000      0.00000000</v>
  </separator>
  <separator name="response functions" >
   <i type="logical" name="LADDER"> F  </i>
   <i type="logical" name="LFXC"> F  </i>
   <i type="logical" name="LHARTREE"> T  </i>
   <i type="int" name="IBSE">     0</i>
   <v type="int" name="KPOINT">    -1     0     0     0</v>
   <i type="logical" name="LTCTE"> F  </i>
   <i type="logical" name="LTETE"> F  </i>
   <i type="logical" name="LTRIPLET"> F  </i>
   <i type="logical" name="LFXCEPS"> F  </i>
   <i type="logical" name="LFXHEG"> F  </i>
   <i type="int" name="NATURALO">     0</i>
   <i type="logical" name="L2ORDER"> F  </i>
   <i type="logical" name="LUSEW"> F  </i>
   <i name="ENCUTGW">     -2.00000000</i>
   <i name="ENCUTGWSOFT">     -2.00000000</i>
   <i name="ENCUTLF">     -1.00000000</i>
   <i type="int" name="LMAXMP2">    -1</i>
   <i name="SCISSOR">      0.00000000</i>
   <i type="int" name="NOMEGA">     0</i>
   <i type="int" name="NOMEGAR">     0</i>
   <i type="int" name="NBANDSGW">    -1</i>
   <i type="int" name="NBANDSO">    -1</i>
   <i type="int" name="NBANDSV">    -1</i>
   <i type="int" name="NELM">   100</i>
   <i type="int" name="NELMHF">     1</i>
   <i type="int" name="DIM">     3</i>
   <i type="int" name="ANTIRES">     0</i>
   <i name="OMEGAMAX">    -30.00000000</i>
   <i name="OMEGAMIN">    -30.00000000</i>
   <i name="OMEGATL">   -200.00000000</i>
   <i type="int" name="OMEGAGRID">     0</i>
   <i name="CSHIFT">     -0.10000000</i>
   <i type="logical" name="SELFENERGY"> F  </i>
   <i type="logical" name="LSPECTRAL"> F  </i>
   <i type="logical" name="LSPECTRALGW"> F  </i>
   <i type="logical" name="LSINGLES"> F  </i>
   <i type="logical" name="LFERMIGW"> F  </i>
   <i type="logical" name="ODDONLYGW"> F  </i>
   <i type="logical" name="EVENONLYGW"> F  </i>
   <i type="int" name="NKREDLFX">     1</i>
   <i type="int" name="NKREDLFY">     1</i>
   <i type="int" name="NKREDLFZ">     1</i>
   <i type="int" name="MAXMEM">  1800</i>
   <i type="int" name="TELESCOPE">     0</i>
   <i type="int" name="TAUPAR">     1</i>
   <i type="int" name="OMEGAPAR">    -1</i>
   <i name="LAMBDA">      1.00000000</i>
  </separator>
  <separator name="External order field" >
   <i name="OFIELD_KAPPA">      0.00000000</i>
   <v name="OFIELD_K">      0.00000000      0.00000000      0.00000000</v>
   <i name="OFIELD_Q6_NEAR">      0.00000000</i>
   <i name="OFIELD_Q6_FAR">      0.00000000</i>
   <i name="OFIELD_A">      0.00000000</i>
  </separator>
  <separator name="solvation model" >
   <i type="logical" name="LSOL"> F  </i>
  </separator>
 </parameters>
 <atominfo>
  <atoms>       5 </atoms>
  <types>       3 </types>
  <array name="atoms" >
   <dimension dim="1">ion</dimension>
   <field type="string">element</field>
   <field type="int">atomtype</field>
   <set>
    <rc><c>Sr</c><c>   1</c></rc>
    <rc><c>Fe</c><c>   2</c></rc>
    <rc><c>O </c><c>   3</c></rc>
    <rc><c>O </c><c>   3</c></rc>
    <rc><c>O </c><c>   3</c></rc>
   </set>
  </array>
  <array name="atomtypes" >
   <dimension dim="1">type</dimension>
   <field type="int">atomspertype</field>
   <field type="string">element</field>
   <field>mass</field>
   <field>valence</field>
   <field type="string">pseudopotential</field>
   <set>
    <rc><c>   1</c><c>Sr</c><c>     87.62000000</c><c>     10.00000000</c><c>  PAW Sr                                </c></rc>
    <rc><c>   1</c><c>Fe</c><c>     55.84700000</c><c>     14.00000000</c><c>  PAW Fe                                </c></rc>
    <rc><c>   3</c><c>O </c><c>     16.00000000</c><c>      6.00000000</c><c>  PAW O_s                               </c></rc>
   </set>
  </array>
 </atominfo>
 <structure name="initialpos" >
  <crystal>
   <varray name="basis" >
    <v>       4.10000000       0.00000000       0.00000000 </v>
    <v>       0.00000000       4.10000000       0.00000000 </v>
    <v>       0.00000000       0.00000000       4.10000000 </v>
   </varray>
   <i name="volume">     68.92100000 </i>
   <varray name="rec_basis" >
    <v>       0.24390244       0.00000000       0.00000000 </v>
    <v>       0.00000000       0.24390244       0.00000000 </v>
    <v>       0.00000000       0.00000000       0.24390244 </v>
   </varray>
  </crystal>
  <varray name="positions" >
   <v>       0.50000000       0.50000000       0.50000000 </v>
   <v>       0.00000000       0.00000000       0.00000000 </v>
   <v>       0.50000000       0.00000000       0.00000000 </v>
   <v>       0.00000000       0.50000000       0.00000000 </v>
   <v>       0.00000000       0.00000000       0.50000000 </v>
  </varray>
 </structure>
 <calculation>
  <scstep>
   <time name="dav">    0.44    0.44</time>
   <time name="total">    0.53    0.53</time>
   <energy>
    <i name="alphaZ">    249.38870556 </i>
    <i name="ewald">  -3081.36582245 </i>
    <i name="hartreedc">  -1368.70680597 </i>
    <i name="XCdc">    188.53114120 </i>
    <i name="pawpsdc">   3241.81915236 </i>
    <i name="pawaedc">  -3317.81696278 </i>
    <i name="eentropy">      0.00000000 </i>
    <i name="bandstr">   -202.51923037 </i>
    <i name="atom">   4601.94837920 </i>
    <i name="e_fr_energy">    311.27855677 </i>
    <i name="e_wo_entrp">    311.27855677 </i>
    <i name="e_0_energy">    311.27855677 </i>
   </energy>
  </scstep>
  <scstep>
   <time name="dav">    0.41    0.41</time>
   <time name="total">    0.42    0.42</time>
   <energy>
    <i name="e_fr_energy">    -18.44981710 </i>
    <i name="e_wo_entrp">    -18.44981710 </i>
    <i name="e_0_energy">    -18.44981710 </i>
   </energy>
  </scstep>
  <scstep>
   <time name="dav">    0.53    0.53</time>
   <time name="total">    0.55    0.55</time>
   <energy>
    <i name="e_fr_energy">    -36.49320559 </i>
    <i name="e_wo_entrp">    -36.49320559 </i>
    <i name="e_0_energy">    -36.49320559 </i>
   </energy>
  </scstep>
  <scstep>
   <time name="dav">    0.58    0.58</time>
   <time name="total">    0.60    0.60</time>
   <energy>
    <i name="e_fr_energy">    -37.06807167 </i>
    <i name="e_wo_entrp">    -37.06807167 </i>
    <i name="e_0_energy">    -37.06807167 </i>
   </energy>
  </scstep>
  <scstep>
   <time name="dav">    0.52    0.52</time>
   <time name="total">    0.56    0.56</time>
   <energy>
    <i name="e_fr_energy">    -37.07734521 </i>
    <i name="e_wo_entrp">    -37.07734521 </i>
    <i name="e_0_energy">    -37.07734521 </i>
   </energy>
  </scstep>
  <scstep>
   <time name="diag">    0.08    0.08</time>
   <time name="diis">    0.20    0.20</time>
   <time name="orth">    0.01    0.01</time>
   <time name="total">    0.41    0.41</time>
   <energy>
    <i name="e_fr_energy">    -44.48581387 </i>
    <i name="e_wo_entrp">    -44.48581387 </i>
    <i name="e_0_energy">    -44.48581387 </i>
   </energy>
  </scstep>
  <scstep>
   <time name="diag">    0.08    0.08</time>
   <time name="diis">    0.18    0.18</time>
   <time name="orth">    0.01    0.01</time>
   <time name="total">    0.38    0.39</time>
   <energy>
    <i name="e_fr_energy">    -32.22829440 </i>
    <i name="e_wo_entrp">    -32.22829440 </i>
    <i name="e_0_energy">    -32.22829440 </i>
   </energy>
  </scstep>
  <scstep>
   <time name="diag">    0.08    0.08</time>
   <time name="diis">    0.20    0.20</time>
   <time name="orth">    0.01    0.01</time>
   <time name="total">    0.41    0.41</time>
   <energy>
    <i name="e_fr_energy">    -31.77571625 </i>
    <i name="e_wo_entrp">    -31.77571625 </i>
    <i name="e_0_energy">    -31.77571625 </i>
   </energy>
  </scstep>
  <scstep>
   <time name="diag">    0.08    0.08</time>
   <time name="diis">    0.19    0.19</time>
   <time name="orth">    0.01    0.01</time>
   <time name="total">    0.39    0.39</time>
   <energy>
    <i name="e_fr_energy">    -31.00479984 </i>
    <i name="e_wo_entrp">    -31.00479984 </i>
    <i name="e_0_energy">    -31.00479984 </i>
   </energy>
  </scstep>
  <scstep>
   <time name="diag">    0.08    0.08</time>
   <time name="diis">    0.19    0.19</time>
   <time name="orth">    0.01    0.01</time>
   <time name="total">    0.39    0.40</time>
   <energy>
    <i name="e_fr_energy">    -31.01841970 </i>
    <i name="e_wo_entrp">    -31.01841970 </i>
    <i name="e_0_energy">    -31.01841970 </i>
   </energy>
  </scstep>
  <scstep>
   <time name="diag">    0.08    0.08</time>
   <time name="diis">    0.18    0.18</time>
   <time name="orth">    0.01    0.01</time>
   <time name="total">    0.39    0.39</time>
   <energy>
    <i name="e_fr_energy">    -31.03969906 </i>
    <i name="e_wo_entrp">    -31.03969906 </i>
    <i name="e_0_energy">    -31.03969906 </i>
   </energy>
  </scstep>
  <scstep>
   <time name="diag">    0.08    0.08</time>
   <time name="diis">    0.17    0.18</time>
   <time name="orth">    0.01    0.01</time>
   <time name="total">    0.38    0.38</time>
   <energy>
    <i name="e_fr_energy">    -31.04795248 </i>
    <i name="e_wo_entrp">    -31.04795248 </i>
    <i name="e_0_energy">    -31.04795248 </i>
   </energy>
  </scstep>
  <scstep>
   <time name="diag">    0.09    0.09</time>
   <time name="diis">    0.18    0.18</time>
   <time name="orth">    0.01    0.01</time>
   <time name="total">    0.38    0.38</time>
   <energy>
    <i name="e_fr_energy">    -31.04970849 </i>
    <i name="e_wo_entrp">    -31.04970849 </i>
    <i name="e_0_energy">    -31.04970849 </i>
   </energy>
  </scstep>
  <scstep>
   <time name="diag">    0.08    0.08</time>
   <time name="diis">    0.13    0.13</time>
   <time name="orth">    0.01    0.01</time>
   <time name="total">    0.31    0.32</time>
   <energy>
    <i name="alphaZ">    249.38870556 </i>
    <i name="ewald">  -3081.36582245 </i>
    <i name="hartreedc">  -1317.96686367 </i>
    <i name="XCdc">    189.86695323 </i>
    <i name="pawpsdc">   3371.61678708 </i>
    <i name="pawaedc">  -3458.45204530 </i>
    <i name="eentropy">      0.00000000 </i>
    <i name="bandstr">   -586.08483989 </i>
    <i name="atom">   4601.94837920 </i>
    <i name="e_fr_energy">    -31.04874623 </i>
    <i name="e_wo_entrp">    -31.04874623 </i>
    <i name="e_0_energy">    -31.04874623 </i>
   </energy>
  </scstep>
  <structure>
   <crystal>
    <varray name="basis" >
     <v>       4.10000000       0.00000000       0.00000000 </v>
     <v>       0.00000000       4.10000000       0.00000000 </v>
     <v>       0.00000000       0.00000000       4.10000000 </v>
    </varray>
    <i name="volume">     68.92100000 </i>
    <varray name="rec_basis" >
     <v>       0.24390244       0.00000000       0.00000000 </v>
     <v>       0.00000000       0.24390244       0.00000000 </v>
     <v>       0.00000000       0.00000000       0.24390244 </v>
    </varray>
   </crystal>
   <varray name="positions" >
    <v>       0.50000000       0.50000000       0.50000000 </v>
    <v>       0.00000000       0.00000000       0.00000000 </v>
    <v>       0.50000000       0.00000000       0.00000000 </v>
    <v>       0.00000000       0.50000000       0.00000000 </v>
    <v>       0.00000000       0.00000000       0.50000000 </v>
   </varray>
  </structure>
  <varray name="forces" >
   <v>       0.00000000       0.00000000       0.00000000 </v>
   <v>       0.00000000       0.00000000       0.00000000 </v>
   <v>       0.00000000       0.00000000       0.00000000 </v>
   <v>       0.00000000       0.00000000       0.00000000 </v>
   <v>       0.00000000       0.00000000       0.00000000 </v>
  </varray>
  <energy>
   <i name="e_fr_energy">    -31.04874623 </i>
   <i name="e_wo_entrp">    -31.04874623 </i>
   <i name="e_0_energy">      0.00000000 </i>
  </energy>
  <time name="totalsc">    6.49    6.53</time>
  <eigenvalues>
   <array>
    <dimension dim="1">band</dimension>
    <dimension dim="2">kpoint</dimension>
    <dimension dim="3">spin</dimension>
    <field>eigene</field>
    <field>occ</field>
    <set>
     <set comment="spin 1">
      <set comment="kpoint 1">
       <r>  -55.6422    1.0000 </r>
       <r>  -55.6420    1.0000 </r>
       <r>  -55.6420    1.0000 </r>
       <r>  -31.4463    1.0000 </r>
       <r>  -15.7094    1.0000 </r>
       <r>  -14.7598    1.0000 </r>
       <r>  -14.7598    1.0000 </r>
       <r>  -13.4337    1.0000 </r>
       <r>  -13.4337    1.0000 </r>
       <r>  -13.3967    1.0000 </r>
       <r>   -5.2313    1.0000 </r>
       <r>   -5.2313    1.0000 </r>
       <r>   -5.2290    1.0000 </r>
       <r>   -4.4082    1.0000 </r>
       <r>   -4.4082    1.0000 </r>
       <r>   -2.1183    1.0000 </r>
       <r>   -1.6461    1.0000 </r>
       <r>   -1.6461    1.0000 </r>
       <r>    0.3298    1.0000 </r>
       <r>    0.3298    1.0000 </r>
       <r>    0.5059    1.0000 </r>
       <r>    0.5599    1.0000 </r>
       <r>    0.9411    1.0000 </r>
       <r>    0.9411    1.0000 </r>
       <r>    6.7270    0.0000 </r>
       <r>    7.2701    0.0000 </r>
       <r>    7.2701    0.0000 </r>
       <r>    9.2491    0.0000 </r>
      </set>
      <set comment="kpoint 2">
       <r>  -55.6425    1.0000 </r>
       <r>  -55.6422    1.0000 </r>
       <r>  -55.6421    1.0000 </r>
       <r>  -31.4417    1.0000 </r>
       <r>  -15.6869    1.0000 </r>
       <r>  -14.8313    1.0000 </r>
       <r>  -14.7402    1.0000 </r>
       <r>  -13.4350    1.0000 </r>
       <r>  -13.4040    1.0000 </r>
       <r>  -13.2567    1.0000 </r>
       <r>   -5.3097    1.0000 </r>
       <r>   -5.3028    1.0000 </r>
       <r>   -5.2302    1.0000 </r>
       <r>   -5.2047    1.0000 </r>
       <r>   -4.4062    1.0000 </r>
       <r>   -2.1403    1.0000 </r>
       <r>   -1.5615    1.0000 </r>
       <r>   -0.9627    1.0000 </r>
       <r>    0.0445    1.0000 </r>
       <r>    0.1170    1.0000 </r>
       <r>    0.3113    1.0000 </r>
       <r>    0.5139    1.0000 </r>
       <r>    0.8493    1.0000 </r>
       <r>    0.9908    1.0443 </r>
       <r>    7.6180    0.0000 </r>
       <r>    7.8244    0.0000 </r>
       <r>    7.9764    0.0000 </r>
       <r>    9.4908    0.0000 </r>
      </set>
      <set comment="kpoint 3">
       <r>  -55.6427    1.0000 </r>
       <r>  -55.6423    1.0000 </r>
       <r>  -55.6422    1.0000 </r>
       <r>  -31.4371    1.0000 </r>
       <r>  -15.6976    1.0000 </r>
       <r>  -14.8348    1.0000 </r>
       <r>  -14.7201    1.0000 </r>
       <r>  -13.4367    1.0000 </r>
       <r>  -13.3847    1.0000 </r>
       <r>  -13.1361    1.0000 </r>
       <r>   -5.8273    1.0000 </r>
       <r>   -5.3821    1.0000 </r>
       <r>   -5.3697    1.0000 </r>
       <r>   -5.2301    1.0000 </r>
       <r>   -4.4052    1.0000 </r>
       <r>   -2.0557    1.0000 </r>
       <r>   -1.4936    1.0000 </r>
       <r>   -0.7904    1.0000 </r>
       <r>   -0.1583    1.0000 </r>
       <r>   -0.0107    1.0000 </r>
       <r>    0.4135    1.0000 </r>
       <r>    0.5389    1.0000 </r>
       <r>    0.6961    1.0000 </r>
       <r>    0.8620    1.1250 </r>
       <r>    8.4087    0.0000 </r>
       <r>    8.4383    0.0000 </r>
       <r>    9.3179    0.0000 </r>
       <r>    9.5046    0.0000 </r>
      </set>
      <set comment="kpoint 4">
       <r>  -55.6424    1.0000 </r>
       <r>  -55.6423    1.0000 </r>
       <r>  -55.6422    1.0000 </r>
       <r>  -31.4373    1.0000 </r>
       <r>  -15.5931    1.0000 </r>
       <r>  -14.9009    1.0000 </r>
       <r>  -14.7485    1.0000 </r>
       <r>  -13.4278    1.0000 </r>
       <r>  -13.3331    1.0000 </r>
       <r>  -13.2435    1.0000 </r>
       <r>   -5.4042    1.0000 </r>
       <r>   -5.3993    1.0000 </r>
       <r>   -5.3123    1.0000 </r>
       <r>   -5.3064    1.0000 </r>
       <r>   -4.9258    1.0000 </r>
       <r>   -2.3177    1.0000 </r>
       <r>   -1.1924    1.0000 </r>
       <r>   -0.4216    1.0000 </r>
       <r>   -0.4192    1.0000 </r>
       <r>   -0.0594    1.0000 </r>
       <r>    0.2235    1.0000 </r>
       <r>    0.6842    1.0000 </r>
       <r>    0.7798    1.0000 </r>
       <r>    1.3819    0.7653 </r>
       <r>    8.1921    0.0000 </r>
       <r>    8.2500    0.0000 </r>
       <r>    8.5056    0.0000 </r>
       <r>    9.7694    0.0000 </r>
      </set>
      <set comment="kpoint 5">
       <r>  -55.6425    1.0000 </r>
       <r>  -55.6422    1.0000 </r>
       <r>  -55.6422    1.0000 </r>
       <r>  -31.4329    1.0000 </r>
       <r>  -15.5199    1.0000 </r>
       <r>  -14.9345    1.0000 </r>
       <r>  -14.7490    1.0000 </r>
       <r>  -13.4336    1.0000 </r>
       <r>  -13.3035    1.0000 </r>
       <r>  -13.1930    1.0000 </r>
       <r>   -5.8753    1.0000 </r>
       <r>   -5.4957    1.0000 </r>
       <r>   -5.3830    1.0000 </r>
       <r>   -5.3146    1.0000 </r>
       <r>   -5.0520    1.0000 </r>
       <r>   -2.2789    1.0000 </r>
       <r>   -1.0015    1.0000 </r>
       <r>   -0.7874    1.0000 </r>
       <r>   -0.2136    1.0000 </r>
       <r>   -0.1180    1.0000 </r>
       <r>    0.3415    1.0000 </r>
       <r>    0.6027    1.0000 </r>
       <r>    0.8842    1.0000 </r>
       <r>    1.5777    0.2205 </r>
       <r>    8.7236    0.0000 </r>
       <r>    8.9552    0.0000 </r>
       <r>    9.2368    0.0000 </r>
       <r>    9.8712    0.0000 </r>
      </set>
      <set comment="kpoint 6">
       <r>  -55.6426    1.0000 </r>
       <r>  -55.6425    1.0000 </r>
       <r>  -55.6422    1.0000 </r>
       <r>  -31.4287    1.0000 </r>
       <r>  -15.2659    1.0000 </r>
       <r>  -15.0232    1.0000 </r>
       <r>  -14.8642    1.0000 </r>
       <r>  -13.4163    1.0000 </r>
       <r>  -13.2501    1.0000 </r>
       <r>  -13.2316    1.0000 </r>
       <r>   -6.0370    1.0000 </r>
       <r>   -5.6087    1.0000 </r>
       <r>   -5.4969    1.0000 </r>
       <r>   -5.3938    1.0000 </r>
       <r>   -5.3921    1.0000 </r>
       <r>   -2.2914    1.0000 </r>
       <r>   -0.9342    1.0000 </r>
       <r>   -0.6327    1.0000 </r>
       <r>   -0.1450    1.0000 </r>
       <r>   -0.1409    1.0000 </r>
       <r>    0.2982    1.0000 </r>
       <r>    0.4024    1.0000 </r>
       <r>    1.1862    1.0000 </r>
       <r>    2.1520   -0.0265 </r>
       <r>    8.8611    0.0000 </r>
       <r>    9.1601    0.0000 </r>
       <r>    9.8462    0.0000 </r>
       <r>    9.9093    0.0000 </r>
      </set>
      <set comment="kpoint 7">
       <r>  -55.6423    1.0000 </r>
       <r>  -55.6423    1.0000 </r>
       <r>  -55.6423    1.0000 </r>
       <r>  -31.4331    1.0000 </r>
       <r>  -15.4769    1.0000 </r>
       <r>  -14.8304    1.0000 </r>
       <r>  -14.8304    1.0000 </r>
       <r>  -13.4112    1.0000 </r>
       <r>  -13.4112    1.0000 </r>
       <r>  -13.2185    1.0000 </r>
       <r>   -5.4228    1.0000 </r>
       <r>   -5.4072    1.0000 </r>
       <r>   -5.4072    1.0000 </r>
       <r>   -5.3756    1.0000 </r>
       <r>   -5.3756    1.0000 </r>
       <r>   -2.9820    1.0000 </r>
       <r>   -0.5921    1.0000 </r>
       <r>   -0.3453    1.0000 </r>
       <r>   -0.3453    1.0000 </r>
       <r>    0.0484    1.0000 </r>
       <r>    0.0484    1.0000 </r>
       <r>    0.8724    1.0000 </r>
       <r>    1.3332    0.9825 </r>
       <r>    1.3332    0.6409 </r>
       <r>    8.3750    0.0000 </r>
       <r>    8.6142    0.0000 </r>
       <r>    8.6191    0.0000 </r>
       <r>    9.7835    0.0000 </r>
      </set>
      <set comment="kpoint 8">
       <r>  -55.6425    1.0000 </r>
       <r>  -55.6424    1.0000 </r>
       <r>  -55.6423    1.0000 </r>
       <r>  -31.4288    1.0000 </r>
       <r>  -15.3542    1.0000 </r>
       <r>  -14.9129    1.0000 </r>
       <r>  -14.7512    1.0000 </r>
       <r>  -13.4984    1.0000 </r>
       <r>  -13.3361    1.0000 </r>
       <r>  -13.2528    1.0000 </r>
       <r>   -5.9010    1.0000 </r>
       <r>   -5.5057    1.0000 </r>
       <r>   -5.4553    1.0000 </r>
       <r>   -5.3952    1.0000 </r>
       <r>   -5.3931    1.0000 </r>
       <r>   -3.1772    1.0000 </r>
       <r>   -0.7328    1.0000 </r>
       <r>   -0.3552    1.0000 </r>
       <r>   -0.2778    1.0000 </r>
       <r>    0.0496    1.0000 </r>
       <r>    0.6407    1.0000 </r>
       <r>    0.9928    1.0000 </r>
       <r>    1.2442    0.9720 </r>
       <r>    1.6564    0.0354 </r>
       <r>    8.7189    0.0000 </r>
       <r>    8.9301    0.0000 </r>
       <r>    9.0121    0.0000 </r>
       <r>    9.5301    0.0000 </r>
      </set>
      <set comment="kpoint 9">
       <r>  -55.6425    1.0000 </r>
       <r>  -55.6424    1.0000 </r>
       <r>  -55.6422    1.0000 </r>
       <r>  -31.4248    1.0000 </r>
       <r>  -15.1185    1.0000 </r>
       <r>  -14.9135    1.0000 </r>
       <r>  -14.8012    1.0000 </r>
       <r>  -13.5103    1.0000 </r>
       <r>  -13.3926    1.0000 </r>
       <r>  -13.3319    1.0000 </r>
       <r>   -6.0354    1.0000 </r>
       <r>   -5.7126    1.0000 </r>
       <r>   -5.5726    1.0000 </r>
       <r>   -5.4661    1.0000 </r>
       <r>   -5.4630    1.0000 </r>
       <r>   -3.5009    1.0000 </r>
       <r>   -0.7149    1.0000 </r>
       <r>   -0.3465    1.0000 </r>
       <r>   -0.3298    1.0000 </r>
       <r>    0.6230    1.0000 </r>
       <r>    0.7882    1.0000 </r>
       <r>    1.2164    1.0000 </r>
       <r>    1.2498    0.8936 </r>
       <r>    2.1467   -0.0128 </r>
       <r>    8.5233    0.0000 </r>
       <r>    8.8323    0.0000 </r>
       <r>    8.8958    0.0000 </r>
       <r>    9.7368    0.0000 </r>
      </set>
      <set comment="kpoint 10">
       <r>  -55.6425    1.0000 </r>
       <r>  -55.6425    1.0000 </r>
       <r>  -55.6424    1.0000 </r>
       <r>  -31.4208    1.0000 </r>
       <r>  -14.9163    1.0000 </r>
       <r>  -14.7817    1.0000 </r>
       <r>  -14.7817    1.0000 </r>
       <r>  -13.5592    1.0000 </r>
       <r>  -13.5592    1.0000 </r>
       <r>  -13.4794    1.0000 </r>
       <r>   -6.0338    1.0000 </r>
       <r>   -6.0338    1.0000 </r>
       <r>   -5.5470    1.0000 </r>
       <r>   -5.5289    1.0000 </r>
       <r>   -5.5289    1.0000 </r>
       <r>   -4.0276    1.0000 </r>
       <r>   -0.5038    1.0000 </r>
       <r>   -0.4012    1.0000 </r>
       <r>   -0.4012    1.0000 </r>
       <r>    1.1613    1.0000 </r>
       <r>    1.1613    1.0000 </r>
       <r>    1.2693    1.0000 </r>
       <r>    2.1284   -0.1691 </r>
       <r>    2.1284   -0.0016 </r>
       <r>    8.1572    0.0000 </r>
       <r>    8.2587    0.0000 </r>
       <r>    8.2588    0.0000 </r>
       <r>   10.4327    0.0000 </r>
      </set>
     </set>
     <set comment="spin 2">
      <set comment="kpoint 1">
       <r>  -51.1423    1.0000 </r>
       <r>  -51.1422    1.0000 </r>
       <r>  -51.1422    1.0000 </r>
       <r>  -31.4457    1.0000 </r>
       <r>  -15.3550    1.0000 </r>
       <r>  -14.2251    1.0000 </r>
       <r>  -14.2251    1.0000 </r>
       <r>  -13.4134    1.0000 </r>
       <r>  -13.4134    1.0000 </r>
       <r>  -13.3863    1.0000 </r>
       <r>   -1.8449    1.0000 </r>
       <r>   -1.6556    1.0000 </r>
       <r>   -1.6556    1.0000 </r>
       <r>    0.6190    1.0000 </r>
       <r>    0.6190    1.0000 </r>
       <r>    0.8097    1.0000 </r>
       <r>    0.9627    1.0000 </r>
       <r>    1.1252    1.0000 </r>
       <r>    1.1252    1.0000 </r>
       <r>    3.1255    0.0000 </r>
       <r>    3.1618    0.0000 </r>
       <r>    3.1618    0.0000 </r>
       <r>    3.5076    0.0000 </r>
       <r>    3.5076    0.0000 </r>
       <r>    7.0227    0.0000 </r>
       <r>    7.3142    0.0000 </r>
       <r>    7.3142    0.0000 </r>
       <r>    9.4493    0.0000 </r>
      </set>
      <set comment="kpoint 2">
       <r>  -51.1427    1.0000 </r>
       <r>  -51.1423    1.0000 </r>
       <r>  -51.1422    1.0000 </r>
       <r>  -31.4411    1.0000 </r>
       <r>  -15.3456    1.0000 </r>
       <r>  -14.3939    1.0000 </r>
       <r>  -14.1968    1.0000 </r>
       <r>  -13.4227    1.0000 </r>
       <r>  -13.3842    1.0000 </r>
       <r>  -13.1945    1.0000 </r>
       <r>   -2.1545    1.0000 </r>
       <r>   -1.6158    1.0000 </r>
       <r>   -1.6002    1.0000 </r>
       <r>   -0.0644    1.0000 </r>
       <r>    0.0956    1.0000 </r>
       <r>    0.5153    1.0000 </r>
       <r>    0.8590    1.0000 </r>
       <r>    0.8677    1.0000 </r>
       <r>    0.9959    1.0000 </r>
       <r>    3.1674    0.0000 </r>
       <r>    3.4582    0.0000 </r>
       <r>    3.5699    0.0000 </r>
       <r>    3.6201    0.0000 </r>
       <r>    4.1814    0.0000 </r>
       <r>    7.8335    0.0000 </r>
       <r>    7.9073    0.0000 </r>
       <r>    8.1166    0.0000 </r>
       <r>    9.4915    0.0000 </r>
      </set>
      <set comment="kpoint 3">
       <r>  -51.1431    1.0000 </r>
       <r>  -51.1423    1.0000 </r>
       <r>  -51.1423    1.0000 </r>
       <r>  -31.4366    1.0000 </r>
       <r>  -15.3604    1.0000 </r>
       <r>  -14.4716    1.0000 </r>
       <r>  -14.1668    1.0000 </r>
       <r>  -13.4333    1.0000 </r>
       <r>  -13.3678    1.0000 </r>
       <r>  -13.0562    1.0000 </r>
       <r>   -2.4248    1.0000 </r>
       <r>   -1.5652    1.0000 </r>
       <r>   -1.5300    1.0000 </r>
       <r>   -0.6630    1.0000 </r>
       <r>   -0.2712    1.0000 </r>
       <r>    0.3409    1.0000 </r>
       <r>    0.6613    1.0000 </r>
       <r>    0.6635    1.0000 </r>
       <r>    0.8924    1.0000 </r>
       <r>    3.1886    0.0000 </r>
       <r>    3.4839    0.0000 </r>
       <r>    3.9374    0.0000 </r>
       <r>    3.9521    0.0000 </r>
       <r>    4.6074    0.0000 </r>
       <r>    8.5266    0.0000 </r>
       <r>    8.5504    0.0000 </r>
       <r>    9.6026    0.0000 </r>
       <r>    9.7305    0.0000 </r>
      </set>
      <set comment="kpoint 4">
       <r>  -51.1427    1.0000 </r>
       <r>  -51.1426    1.0000 </r>
       <r>  -51.1423    1.0000 </r>
       <r>  -31.4368    1.0000 </r>
       <r>  -15.2612    1.0000 </r>
       <r>  -14.5059    1.0000 </r>
       <r>  -14.2443    1.0000 </r>
       <r>  -13.4167    1.0000 </r>
       <r>  -13.2588    1.0000 </r>
       <r>  -13.2004    1.0000 </r>
       <r>   -2.4443    1.0000 </r>
       <r>   -1.6348    1.0000 </r>
       <r>   -1.5168    1.0000 </r>
       <r>   -0.7817    1.0000 </r>
       <r>   -0.0109    1.0000 </r>
       <r>    0.0595    1.0000 </r>
       <r>    0.7483    1.0000 </r>
       <r>    0.7710    1.0000 </r>
       <r>    1.2185    1.0111 </r>
       <r>    3.5268    0.0000 </r>
       <r>    3.6207    0.0000 </r>
       <r>    3.7112    0.0000 </r>
       <r>    3.8319    0.0000 </r>
       <r>    4.7123    0.0000 </r>
       <r>    8.2978    0.0000 </r>
       <r>    8.4845    0.0000 </r>
       <r>    8.5687    0.0000 </r>
       <r>    9.8947    0.0000 </r>
      </set>
      <set comment="kpoint 5">
       <r>  -51.1430    1.0000 </r>
       <r>  -51.1426    1.0000 </r>
       <r>  -51.1423    1.0000 </r>
       <r>  -31.4324    1.0000 </r>
       <r>  -15.1859    1.0000 </r>
       <r>  -14.6031    1.0000 </r>
       <r>  -14.2477    1.0000 </r>
       <r>  -13.4295    1.0000 </r>
       <r>  -13.2507    1.0000 </r>
       <r>  -13.1191    1.0000 </r>
       <r>   -2.7155    1.0000 </r>
       <r>   -1.6543    1.0000 </r>
       <r>   -1.3998    1.0000 </r>
       <r>   -1.3003    1.0000 </r>
       <r>   -0.3767    1.0000 </r>
       <r>    0.0602    1.0000 </r>
       <r>    0.5017    1.0000 </r>
       <r>    0.7056    1.0000 </r>
       <r>    1.3059    0.9471 </r>
       <r>    3.5826    0.0000 </r>
       <r>    3.8283    0.0000 </r>
       <r>    3.9473    0.0000 </r>
       <r>    4.0024    0.0000 </r>
       <r>    5.2129    0.0000 </r>
       <r>    8.8355    0.0000 </r>
       <r>    9.1016    0.0000 </r>
       <r>    9.3461    0.0000 </r>
       <r>    9.9926    0.0000 </r>
      </set>
      <set comment="kpoint 6">
       <r>  -51.1430    1.0000 </r>
       <r>  -51.1430    1.0000 </r>
       <r>  -51.1423    1.0000 </r>
       <r>  -31.4282    1.0000 </r>
       <r>  -14.9266    1.0000 </r>
       <r>  -14.7192    1.0000 </r>
       <r>  -14.4230    1.0000 </r>
       <r>  -13.4155    1.0000 </r>
       <r>  -13.1701    1.0000 </r>
       <r>  -13.1611    1.0000 </r>
       <r>   -3.0332    1.0000 </r>
       <r>   -1.7412    1.0000 </r>
       <r>   -1.7311    1.0000 </r>
       <r>   -1.1754    1.0000 </r>
       <r>   -0.4299    1.0000 </r>
       <r>   -0.3492    1.0000 </r>
       <r>    0.5434    1.0000 </r>
       <r>    0.5900    1.0000 </r>
       <r>    1.6716   -0.0028 </r>
       <r>    3.8824    0.0000 </r>
       <r>    3.9534    0.0000 </r>
       <r>    3.9673    0.0000 </r>
       <r>    4.1324    0.0000 </r>
       <r>    5.8523    0.0000 </r>
       <r>    8.9367    0.0000 </r>
       <r>    9.2706    0.0000 </r>
       <r>    9.9871    0.0000 </r>
       <r>   10.0194    0.0000 </r>
      </set>
      <set comment="kpoint 7">
       <r>  -51.1426    1.0000 </r>
       <r>  -51.1426    1.0000 </r>
       <r>  -51.1426    1.0000 </r>
       <r>  -31.4326    1.0000 </r>
       <r>  -15.1554    1.0000 </r>
       <r>  -14.4111    1.0000 </r>
       <r>  -14.4111    1.0000 </r>
       <r>  -13.3606    1.0000 </r>
       <r>  -13.3606    1.0000 </r>
       <r>  -13.1731    1.0000 </r>
       <r>   -2.7087    1.0000 </r>
       <r>   -1.5946    1.0000 </r>
       <r>   -1.5946    1.0000 </r>
       <r>   -0.8859    1.0000 </r>
       <r>   -0.5551    1.0000 </r>
       <r>   -0.5551    1.0000 </r>
       <r>    1.0170    1.0027 </r>
       <r>    1.0170    1.0038 </r>
       <r>    1.3446    0.9231 </r>
       <r>    3.7212    0.0000 </r>
       <r>    3.7920    0.0000 </r>
       <r>    3.7920    0.0000 </r>
       <r>    4.6963    0.0000 </r>
       <r>    4.6963    0.0000 </r>
       <r>    8.5480    0.0000 </r>
       <r>    8.7081    0.0000 </r>
       <r>    8.7106    0.0000 </r>
       <r>    9.9079    0.0000 </r>
      </set>
      <set comment="kpoint 8">
       <r>  -51.1430    1.0000 </r>
       <r>  -51.1427    1.0000 </r>
       <r>  -51.1426    1.0000 </r>
       <r>  -31.4284    1.0000 </r>
       <r>  -15.0267    1.0000 </r>
       <r>  -14.5780    1.0000 </r>
       <r>  -14.2929    1.0000 </r>
       <r>  -13.4861    1.0000 </r>
       <r>  -13.2766    1.0000 </r>
       <r>  -13.1966    1.0000 </r>
       <r>   -2.9884    1.0000 </r>
       <r>   -1.6462    1.0000 </r>
       <r>   -1.5393    1.0000 </r>
       <r>   -1.2905    1.0000 </r>
       <r>   -0.8961    1.0000 </r>
       <r>   -0.5578    1.0000 </r>
       <r>    1.0352    1.0104 </r>
       <r>    1.1033    1.0096 </r>
       <r>    1.4233    0.6041 </r>
       <r>    3.7978    0.0000 </r>
       <r>    4.0113    0.0000 </r>
       <r>    4.0435    0.0000 </r>
       <r>    4.6629    0.0000 </r>
       <r>    5.3446    0.0000 </r>
       <r>    8.8665    0.0000 </r>
       <r>    9.0595    0.0000 </r>
       <r>    9.1084    0.0000 </r>
       <r>    9.6261    0.0000 </r>
      </set>
      <set comment="kpoint 9">
       <r>  -51.1429    1.0000 </r>
       <r>  -51.1429    1.0000 </r>
       <r>  -51.1425    1.0000 </r>
       <r>  -31.4243    1.0000 </r>
       <r>  -14.7873    1.0000 </r>
       <r>  -14.5873    1.0000 </r>
       <r>  -14.3858    1.0000 </r>
       <r>  -13.5032    1.0000 </r>
       <r>  -13.3330    1.0000 </r>
       <r>  -13.2763    1.0000 </r>
       <r>   -3.3099    1.0000 </r>
       <r>   -1.7216    1.0000 </r>
       <r>   -1.5188    1.0000 </r>
       <r>   -1.5001    1.0000 </r>
       <r>   -0.9196    1.0000 </r>
       <r>   -0.9070    1.0000 </r>
       <r>    1.2059    0.9993 </r>
       <r>    1.2399    0.9927 </r>
       <r>    1.7019   -0.0602 </r>
       <r>    4.0503    0.0000 </r>
       <r>    4.0673    0.0000 </r>
       <r>    4.1752    0.0000 </r>
       <r>    4.9288    0.0000 </r>
       <r>    5.8459    0.0000 </r>
       <r>    8.6379    0.0000 </r>
       <r>    8.9577    0.0000 </r>
       <r>    9.0329    0.0000 </r>
       <r>    9.8077    0.0000 </r>
      </set>
      <set comment="kpoint 10">
       <r>  -51.1430    1.0000 </r>
       <r>  -51.1430    1.0000 </r>
       <r>  -51.1428    1.0000 </r>
       <r>  -31.4205    1.0000 </r>
       <r>  -14.5784    1.0000 </r>
       <r>  -14.4115    1.0000 </r>
       <r>  -14.4115    1.0000 </r>
       <r>  -13.5419    1.0000 </r>
       <r>  -13.5419    1.0000 </r>
       <r>  -13.4442    1.0000 </r>
       <r>   -3.6467    1.0000 </r>
       <r>   -1.7097    1.0000 </r>
       <r>   -1.7097    1.0000 </r>
       <r>   -1.2989    1.0000 </r>
       <r>   -1.1865    1.0000 </r>
       <r>   -1.1865    1.0000 </r>
       <r>    1.6560    0.3009 </r>
       <r>    1.6560    0.2516 </r>
       <r>    1.7597   -0.0214 </r>
       <r>    4.2085    0.0000 </r>
       <r>    4.2249    0.0000 </r>
       <r>    4.2249    0.0000 </r>
       <r>    5.8318    0.0000 </r>
       <r>    5.8319    0.0000 </r>
       <r>    8.2698    0.0000 </r>
       <r>    8.3692    0.0000 </r>
       <r>    8.3695    0.0000 </r>
       <r>   10.4592    0.0000 </r>
      </set>
     </set>
    </set>
   </array>
  </eigenvalues>
  <separator name="orbital magnetization" >
   <v name="MAGDIPOLOUT">      0.00000000      0.00000000      0.00000000</v>
  </separator>
 </calculation>
 <structure name="finalpos" >
  <crystal>
   <varray name="basis" >
    <v>       4.10000000       0.00000000       0.00000000 </v>
    <v>       0.00000000       4.10000000       0.00000000 </v>
    <v>       0.00000000       0.00000000       4.10000000 </v>
   </varray>
   <i name="volume">     68.92100000 </i>
   <varray name="rec_basis" >
    <v>       0.24390244       0.00000000       0.00000000 </v>
    <v>       0.00000000       0.24390244       0.00000000 </v>
    <v>       0.00000000       0.00000000       0.24390244 </v>
   </varray>
  </crystal>
  <varray name="positions" >
   <v>       0.50000000       0.50000000       0.50000000 </v>
   <v>       0.00000000       0.00000000       0.00000000 </v>
   <v>       0.50000000       0.00000000       0.00000000 </v>
   <v>       0.00000000       0.50000000       0.00000000 </v>
   <v>       0.00000000       0.00000000       0.50000000 </v>
  </varray>
 </structure>
</modeling>
