unknown system                          
   1.00000000000000     
     3.800000    0.000000    0.000000
     0.000000    3.800000    0.000000
     0.000000    0.000000    3.800000
   Sr   Fe   O 
     1     1     3
Direct
  0.500000  0.500000  0.500000
  0.000000  0.000000  0.000000
  0.500000  0.000000  0.000000
  0.000000  0.500000  0.000000
  0.000000  0.000000  0.500000
 
   32   32   32
  1121.7      1062.6      898.88      669.11      427.89      228.38      102.21      48.547      40.206      47.651    
  68.248      109.47      175.64      261.79      351.23      419.73      445.48      419.73      351.23      261.79    
  175.64      109.47      68.248      47.651      40.206      48.547      102.21      228.38      427.89      669.11    
  898.88      1062.6      1062.6      1005.8      848.75      629.21      400.04      212.03      94.612      45.826    
  38.754      45.884      65.282      104.10      166.70      248.59      333.90      399.40      424.06      399.40    
  333.90      248.59      166.70      104.10      65.282      45.884      38.754      45.826      94.612      212.03    
  400.04      629.21      848.75      1005.8      898.88      848.75      711.00      520.61      325.26      168.98    
  75.199      39.055      34.779      41.079      57.340      89.631      142.36      212.25      285.83      342.72    
  364.22      342.72      285.83      212.25      142.36      89.631      57.340      41.079      34.779      39.055    
  75.199      168.98      325.26      520.61      711.00      848.75      669.11      629.21      520.61      373.34    
  226.69      114.60      52.191      31.294      29.270      34.414      46.797      70.369      109.32      161.99    
  218.37      262.47      279.22      262.47      218.37      161.99      109.32      70.369      46.797      34.414    
  29.270      31.294      52.191      114.60      226.69      373.34      520.61      629.21      427.89      400.04    
  325.26      226.69      132.99      66.516      33.876      24.646      23.426      27.265      36.155      51.410    
  76.247      110.47      147.87      177.56      188.93      177.56      147.87      110.47      76.247      51.410    
  36.155      27.265      23.426      24.646      33.876      66.516      132.99      226.69      325.26      400.04    
  228.38      212.03      168.98      114.60      66.516      36.212      23.575      19.076      18.244      20.809    
  26.747      36.185      50.027      68.868      89.775      106.63      113.14      106.63      89.775      68.868    
  50.027      36.185      26.747      20.809      18.244      19.076      23.575      36.212      66.516      114.60    
  168.98      212.03      102.21      94.612      75.199      52.191      33.876      23.575      18.034      14.979    
  14.275      15.708      19.247      24.949      32.603      41.836      51.722      59.675      62.757      59.675    
  51.722      41.836      32.603      24.949      19.247      15.708      14.275      14.979      18.034      23.575    
  33.876      52.191      75.199      94.612      48.547      45.826      39.055      31.294      24.646      19.076    
  14.979      12.542      11.638      12.105      13.891      16.983      21.221      26.126      30.841      34.335    
  35.646      34.335      30.841      26.126      21.221      16.983      13.891      12.105      11.638      12.542    
  14.979      19.076      24.646      31.294      39.055      45.826      40.206      38.754      34.779      29.270    
  23.426      18.244      14.275      11.638      10.211      9.8309      10.387      11.793      13.898      16.398    
  18.816      20.586      21.238      20.586      18.816      16.398      13.898      11.793      10.387      9.8309    
  10.211      11.638      14.275      18.244      23.426      29.270      34.779      38.754      47.651      45.884    
  41.079      34.414      27.265      20.809      15.708      12.105      9.8309      8.6275      8.2764      8.6064    
  9.4445      10.570      11.702      12.543      12.854      12.543      11.702      10.570      9.4445      8.6064    
  8.2764      8.6275      9.8309      12.105      15.708      20.809      27.265      34.414      41.079      45.884    
  68.248      65.282      57.340      46.797      36.155      26.747      19.247      13.891      10.387      8.2764    
  7.1641      6.7591      6.8335      7.1872      7.6330      7.9950      8.1339      7.9950      7.6330      7.1872    
  6.8335      6.7591      7.1641      8.2764      10.387      13.891      19.247      26.747      36.155      46.797    
  57.340      65.282      109.47      104.10      89.631      70.369      51.410      36.185      24.949      16.983    
  11.793      8.6064      6.7591      5.7864      5.3633      5.2644      5.3371      5.4560      5.5116      5.4560    
  5.3371      5.2644      5.3633      5.7864      6.7591      8.6064      11.793      16.983      24.949      36.185    
  51.410      70.369      89.631      104.10      175.64      166.70      142.36      109.32      76.247      50.027    
  32.603      21.221      13.898      9.4445      6.8335      5.3633      4.5677      4.1626      4.0024      3.9835    
  3.9955      3.9835      4.0024      4.1626      4.5677      5.3633      6.8335      9.4445      13.898      21.221    
  32.603      50.027      76.247      109.32      142.36      166.70      261.79      248.59      212.25      161.99    
  110.47      68.868      41.836      26.126      16.398      10.570      7.1872      5.2644      4.1626      3.5187    
  3.1844      3.0701      3.0545      3.0701      3.1844      3.5187      4.1626      5.2644      7.1872      10.570    
  16.398      26.126      41.836      68.868      110.47      161.99      212.25      248.59      351.23      333.90    
  285.83      218.37      147.87      89.775      51.722      30.841      18.816      11.702      7.6330      5.3371    
  4.0024      3.1844      2.7272      2.5503      2.5183      2.5503      2.7272      3.1844      4.0024      5.3371    
  7.6330      11.702      18.816      30.841      51.722      89.775      147.87      218.37      285.83      333.90    
  419.73      399.40      342.72      262.47      177.56      106.63      59.675      34.335      20.586      12.543    
  7.9950      5.4560      3.9835      3.0701      2.5503      2.3461      2.3086      2.3461      2.5503      3.0701    
  3.9835      5.4560      7.9950      12.543      20.586      34.335      59.675      106.63      177.56      262.47    
  342.72      399.40      445.48      424.06      364.22      279.22      188.93      113.14      62.757      35.646    
  21.238      12.854      8.1339      5.5116      3.9955      3.0545      2.5183      2.3086      2.2708      2.3086    
  2.5183      3.0545      3.9955      5.5116      8.1339      12.854      21.238      35.646      62.757      113.14    
  188.93      279.22      364.22      424.06      419.73      399.40      342.72      262.47      177.56      106.63    
  59.675      34.335      20.586      12.543      7.9950      5.4560      3.9835      3.0701      2.5503      2.3461    
  2.3086      2.3461      2.5503      3.0701      3.9835      5.4560      7.9950      12.543      20.586      34.335    
  59.675      106.63      177.56      262.47      342.72      399.40      351.23      333.90      285.83      218.37    
  147.87      89.775      51.722      30.841      18.816      11.702      7.6330      5.3371      4.0024      3.1844    
  2.7272      2.5503      2.5183      2.5503      2.7272      3.1844      4.0024      5.3371      7.6330      11.702    
  18.816      30.841      51.722      89.775      147.87      218.37      285.83      333.90      261.79      248.59    
  212.25      161.99      110.47      68.868      41.836      26.126      16.398      10.570      7.1872      5.2644    
  4.1626      3.5187      3.1844      3.0701      3.0545      3.0701      3.1844      3.5187      4.1626      5.2644    
  7.1872      10.570      16.398      26.126      41.836      68.868      110.47      161.99      212.25      248.59    
  175.64      166.70      142.36      109.32      76.247      50.027      32.603      21.221      13.898      9.4445    
  6.8335      5.3633      4.5677      4.1626      4.0024      3.9835      3.9955      3.9835      4.0024      4.1626    
  4.5677      5.3633      6.8335      9.4445      13.898      21.221      32.603      50.027      76.247      109.32    
  142.36      166.70      109.47      104.10      89.631      70.369      51.410      36.185      24.949      16.983    
  11.793      8.6064      6.7591      5.7864      5.3633      5.2644      5.3371      5.4560      5.5116      5.4560    
  5.3371      5.2644      5.3633      5.7864      6.7591      8.6064      11.793      16.983      24.949      36.185    
  51.410      70.369      89.631      104.10      68.248      65.282      57.340      46.797      36.155      26.747    
  19.247      13.891      10.387      8.2764      7.1641      6.7591      6.8335      7.1872      7.6330      7.9950    
  8.1339      7.9950      7.6330      7.1872      6.8335      6.7591      7.1641      8.2764      10.387      13.891    
  19.247      26.747      36.155      46.797      57.340      65.282      47.651      45.884      41.079      34.414    
  27.265      20.809      15.708      12.105      9.8309      8.6275      8.2764      8.6064      9.4445      10.570    
  11.702      12.543      12.854      12.543      11.702      10.570      9.4445      8.6064      8.2764      8.6275    
  9.8309      12.105      15.708      20.809      27.265      34.414      41.079      45.884      40.206      38.754    
  34.779      29.270      23.426      18.244      14.275      11.638      10.211      9.8309      10.387      11.793    
  13.898      16.398      18.816      20.586      21.238      20.586      18.816      16.398      13.898      11.793    
  10.387      9.8309      10.211      11.638      14.275      18.244      23.426      29.270      34.779      38.754    
  48.547      45.826      39.055      31.294      24.646      19.076      14.979      12.542      11.638      12.105    
  13.891      16.983      21.221      26.126      30.841      34.335      35.646      34.335      30.841      26.126    
  21.221      16.983      13.891      12.105      11.638      12.542      14.979      19.076      24.646      31.294    
  39.055      45.826      102.21      94.612      75.199      52.191      33.876      23.575      18.034      14.979    
  14.275      15.708      19.247      24.949      32.603      41.836      51.722      59.675      62.757      59.675    
  51.722      41.836      32.603      24.949      19.247      15.708      14.275      14.979      18.034      23.575    
  33.876      52.191      75.199      94.612      228.38      212.03      168.98      114.60      66.516      36.212    
  23.575      19.076      18.244      20.809      26.747      36.185      50.027      68.868      89.775      106.63    
  113.14      106.63      89.775      68.868      50.027      36.185      26.747      20.809      18.244      19.076    
  23.575      36.212      66.516      114.60      168.98      212.03      427.89      400.04      325.26      226.69    
  132.99      66.516      33.876      24.646      23.426      27.265      36.155      51.410      76.247      110.47    
  147.87      177.56      188.93      177.56      147.87      110.47      76.247      51.410      36.155      27.265    
  23.426      24.646      33.876      66.516      132.99      226.69      325.26      400.04      669.11      629.21    
  520.61      373.34      226.69      114.60      52.191      31.294      29.270      34.414      46.797      70.369    
  109.32      161.99      218.37      262.47      279.22      262.47      218.37      161.99      109.32      70.369    
  46.797      34.414      29.270      31.294      52.191      114.60      226.69      373.34      520.61      629.21    
  898.88      848.75      711.00      520.61      325.26      168.98      75.199      39.055      34.779      41.079    
  57.340      89.631      142.36      212.25      285.83      342.72      364.22      342.72      285.83      212.25    
  142.36      89.631      57.340      41.079      34.779      39.055      75.199      168.98      325.26      520.61    
  711.00      848.75      1062.6      1005.8      848.75      629.21      400.04      212.03      94.612      45.826    
  38.754      45.884      65.282      104.10      166.70      248.59      333.90      399.40      424.06      399.40    
  333.90      248.59      166.70      104.10      65.282      45.884      38.754      45.826      94.612      212.03    
  400.04      629.21      848.75      1005.8      1062.6      1005.8      848.75      629.21      400.04      212.03    
  94.612      45.826      38.754      45.884      65.282      104.10      166.70      248.59      333.90      399.40    
  424.06      399.40      333.90      248.59      166.70      104.10      65.282      45.884      38.754      45.826    
  94.612      212.03      400.04      629.21      848.75      1005.8      1005.8      951.25      800.77      591.20    
  373.68      196.70      87.596      43.347      37.366      44.203      62.481      99.009      158.18      235.93    
  317.23      379.78      403.36      379.78      317.23      235.93      158.18      99.009      62.481      44.203    
  37.366      43.347      87.596      196.70      373.68      591.20      800.77      951.25      848.75      800.77    
  669.15      487.92      303.05      156.46      69.725      37.186      33.568      39.622      54.984      85.324    
  135.03      201.20      271.10      325.26      345.75      325.26      271.10      201.20      135.03      85.324    
  54.984      39.622      33.568      37.186      69.725      156.46      303.05      487.92      669.15      800.77    
  629.21      591.20      487.92      348.41      210.36      105.89      48.688      30.096      28.300      33.246    
  45.025      67.157      103.75      153.39      206.70      248.48      264.37      248.48      206.70      153.39    
  103.75      67.157      45.025      33.246      28.300      30.096      48.688      105.89      210.36      348.41    
  487.92      591.20      400.04      373.68      303.05      210.36      122.91      61.606      32.110      23.852    
  22.709      26.403      34.920      49.312      72.581      104.67      139.84      167.81      178.53      167.81    
  139.84      104.67      72.581      49.312      34.920      26.403      22.709      23.852      32.110      61.606    
  122.91      210.36      303.05      373.68      212.03      196.70      156.46      105.89      61.606      34.113    
  22.782      18.519      17.745      20.216      25.909      34.932      47.962      65.585      85.138      100.92    
  107.02      100.92      85.138      65.585      47.962      34.932      25.909      20.216      17.745      18.519    
  22.782      34.113      61.606      105.89      156.46      196.70      94.612      87.596      69.725      48.688    
  32.110      22.782      17.508      14.597      13.935      15.316      18.714      24.179      31.510      40.239    
  49.501      56.930      59.807      56.930      49.501      40.239      31.510      24.179      18.714      15.316    
  13.935      14.597      17.508      22.782      32.110      48.688      69.725      87.596      45.826      43.347    
  37.186      30.096      23.852      18.519      14.597      12.263      11.396      11.846      13.563      16.533    
  20.601      25.305      29.824      33.150      34.392      33.150      29.824      25.305      20.601      16.533    
  13.563      11.846      11.396      12.263      14.597      18.519      23.852      30.096      37.186      43.347    
  38.754      37.366      33.568      28.300      22.709      17.745      13.935      11.396      10.018      9.6490    
  10.183      11.538      13.565      15.970      18.295      19.995      20.621      19.995      18.295      15.970    
  13.565      11.538      10.183      9.6490      10.018      11.396      13.935      17.745      22.709      28.300    
  33.568      37.366      45.884      44.203      39.622      33.246      26.403      20.216      15.316      11.846    
  9.6490      8.4829      8.1412      8.4600      9.2714      10.360      11.456      12.269      12.569      12.269    
  11.456      10.360      9.2714      8.4600      8.1412      8.4829      9.6490      11.846      15.316      20.216    
  26.403      33.246      39.622      44.203      65.282      62.481      54.984      45.025      34.920      25.909    
  18.714      13.563      10.183      8.1412      7.0628      6.6706      6.7452      7.0922      7.5285      7.8818    
  8.0173      7.8818      7.5285      7.0922      6.7452      6.6706      7.0628      8.1412      10.183      13.563    
  18.714      25.909      34.920      45.025      54.984      62.481      104.10      99.009      85.324      67.157    
  49.312      34.932      24.179      16.533      11.538      8.4600      6.6706      5.7272      5.3189      5.2281    
  5.3041      5.4230      5.4780      5.4230      5.3041      5.2281      5.3189      5.7272      6.6706      8.4600    
  11.538      16.533      24.179      34.932      49.312      67.157      85.324      99.009      166.70      158.18    
  135.03      103.75      72.581      47.962      31.510      20.601      13.565      9.2714      6.7452      5.3189    
  4.5482      4.1596      4.0096      3.9948      4.0074      3.9948      4.0096      4.1596      4.5482      5.3189    
  6.7452      9.2714      13.565      20.601      31.510      47.962      72.581      103.75      135.03      158.18    
  248.59      235.93      201.20      153.39      104.67      65.585      40.239      25.305      15.970      10.360    
  7.0922      5.2281      4.1596      3.5390      3.2201      3.1124      3.0980      3.1124      3.2201      3.5390    
  4.1596      5.2281      7.0922      10.360      15.970      25.305      40.239      65.585      104.67      153.39    
  201.20      235.93      333.90      317.23      271.10      206.70      139.84      85.138      49.501      29.824    
  18.295      11.456      7.5285      5.3041      4.0096      3.2201      2.7819      2.6132      2.5828      2.6132    
  2.7819      3.2201      4.0096      5.3041      7.5285      11.456      18.295      29.824      49.501      85.138    
  139.84      206.70      271.10      317.23      399.40      379.78      325.26      248.48      167.81      100.92    
  56.930      33.150      19.995      12.269      7.8818      5.4230      3.9948      3.1124      2.6132      2.4177    
  2.3817      2.4177      2.6132      3.1124      3.9948      5.4230      7.8818      12.269      19.995      33.150    
  56.930      100.92      167.81      248.48      325.26      379.78      424.06      403.36      345.75      264.37    
  178.53      107.02      59.807      34.392      20.621      12.569      8.0173      5.4780      4.0074      3.0980    
  2.5828      2.3817      2.3454      2.3817      2.5828      3.0980      4.0074      5.4780      8.0173      12.569    
  20.621      34.392      59.807      107.02      178.53      264.37      345.75      403.36      399.40      379.78    
  325.26      248.48      167.81      100.92      56.930      33.150      19.995      12.269      7.8818      5.4230    
  3.9948      3.1124      2.6132      2.4177      2.3817      2.4177      2.6132      3.1124      3.9948      5.4230    
  7.8818      12.269      19.995      33.150      56.930      100.92      167.81      248.48      325.26      379.78    
  333.90      317.23      271.10      206.70      139.84      85.138      49.501      29.824      18.295      11.456    
  7.5285      5.3041      4.0096      3.2201      2.7819      2.6132      2.5828      2.6132      2.7819      3.2201    
  4.0096      5.3041      7.5285      11.456      18.295      29.824      49.501      85.138      139.84      206.70    
  271.10      317.23      248.59      235.93      201.20      153.39      104.67      65.585      40.239      25.305    
  15.970      10.360      7.0922      5.2281      4.1596      3.5390      3.2201      3.1124      3.0980      3.1124    
  3.2201      3.5390      4.1596      5.2281      7.0922      10.360      15.970      25.305      40.239      65.585    
  104.67      153.39      201.20      235.93      166.70      158.18      135.03      103.75      72.581      47.962    
  31.510      20.601      13.565      9.2714      6.7452      5.3189      4.5482      4.1596      4.0096      3.9948    
  4.0074      3.9948      4.0096      4.1596      4.5482      5.3189      6.7452      9.2714      13.565      20.601    
  31.510      47.962      72.581      103.75      135.03      158.18      104.10      99.009      85.324      67.157    
  49.312      34.932      24.179      16.533      11.538      8.4600      6.6706      5.7272      5.3189      5.2281    
  5.3041      5.4230      5.4780      5.4230      5.3041      5.2281      5.3189      5.7272      6.6706      8.4600    
  11.538      16.533      24.179      34.932      49.312      67.157      85.324      99.009      65.282      62.481    
  54.984      45.025      34.920      25.909      18.714      13.563      10.183      8.1412      7.0628      6.6706    
  6.7452      7.0922      7.5285      7.8818      8.0173      7.8818      7.5285      7.0922      6.7452      6.6706    
  7.0628      8.1412      10.183      13.563      18.714      25.909      34.920      45.025      54.984      62.481    
  45.884      44.203      39.622      33.246      26.403      20.216      15.316      11.846      9.6490      8.4829    
  8.1412      8.4600      9.2714      10.360      11.456      12.269      12.569      12.269      11.456      10.360    
  9.2714      8.4600      8.1412      8.4829      9.6490      11.846      15.316      20.216      26.403      33.246    
  39.622      44.203      38.754      37.366      33.568      28.300      22.709      17.745      13.935      11.396    
  10.018      9.6490      10.183      11.538      13.565      15.970      18.295      19.995      20.621      19.995    
  18.295      15.970      13.565      11.538      10.183      9.6490      10.018      11.396      13.935      17.745    
  22.709      28.300      33.568      37.366      45.826      43.347      37.186      30.096      23.852      18.519    
  14.597      12.263      11.396      11.846      13.563      16.533      20.601      25.305      29.824      33.150    
  34.392      33.150      29.824      25.305      20.601      16.533      13.563      11.846      11.396      12.263    
  14.597      18.519      23.852      30.096      37.186      43.347      94.612      87.596      69.725      48.688    
  32.110      22.782      17.508      14.597      13.935      15.316      18.714      24.179      31.510      40.239    
  49.501      56.930      59.807      56.930      49.501      40.239      31.510      24.179      18.714      15.316    
  13.935      14.597      17.508      22.782      32.110      48.688      69.725      87.596      212.03      196.70    
  156.46      105.89      61.606      34.113      22.782      18.519      17.745      20.216      25.909      34.932    
  47.962      65.585      85.138      100.92      107.02      100.92      85.138      65.585      47.962      34.932    
  25.909      20.216      17.745      18.519      22.782      34.113      61.606      105.89      156.46      196.70    
  400.04      373.68      303.05      210.36      122.91      61.606      32.110      23.852      22.709      26.403    
  34.920      49.312      72.581      104.67      139.84      167.81      178.53      167.81      139.84      104.67    
  72.581      49.312      34.920      26.403      22.709      23.852      32.110      61.606      122.91      210.36    
  303.05      373.68      629.21      591.20      487.92      348.41      210.36      105.89      48.688      30.096    
  28.300      33.246      45.025      67.157      103.75      153.39      206.70      248.48      264.37      248.48    
  206.70      153.39      103.75      67.157      45.025      33.246      28.300      30.096      48.688      105.89    
  210.36      348.41      487.92      591.20      848.75      800.77      669.15      487.92      303.05      156.46    
  69.725      37.186      33.568      39.622      54.984      85.324      135.03      201.20      271.10      325.26    
  345.75      325.26      271.10      201.20      135.03      85.324      54.984      39.622      33.568      37.186    
  69.725      156.46      303.05      487.92      669.15      800.77      1005.8      951.25      800.77      591.20    
  373.68      196.70      87.596      43.347      37.366      44.203      62.481      99.009      158.18      235.93    
  317.23      379.78      403.36      379.78      317.23      235.93      158.18      99.009      62.481      44.203    
  37.366      43.347      87.596      196.70      373.68      591.20      800.77      951.25      898.88      848.75    
  711.00      520.61      325.26      168.98      75.199      39.055      34.779      41.079      57.340      89.631    
  142.36      212.25      285.83      342.72      364.22      342.72      285.83      212.25      142.36      89.631    
  57.340      41.079      34.779      39.055      75.199      168.98      325.26      520.61      711.00      848.75    
  848.75      800.77      669.15      487.92      303.05      156.46      69.725      37.186      33.568      39.622    
  54.984      85.324      135.03      201.20      271.10      325.26      345.75      325.26      271.10      201.20    
  135.03      85.324      54.984      39.622      33.568      37.186      69.725      156.46      303.05      487.92    
  669.15      800.77      711.00      669.15      554.99      399.60      243.93      123.84      55.921      32.527    
  30.249      35.623      48.677      73.799      115.25      171.09      230.66      277.14      294.79      277.14    
  230.66      171.09      115.25      73.799      48.677      35.623      30.249      32.527      55.921      123.84    
  243.93      399.60      554.99      669.15      520.61      487.92      399.60      281.75      167.40      83.545    
  40.004      27.014      25.642      30.037      40.253      58.604      88.831      130.20      175.03      210.39    
  223.89      210.39      175.03      130.20      88.831      58.604      40.253      30.037      25.642      27.014    
  40.004      83.545      167.40      281.75      399.60      487.92      325.26      303.05      243.93      167.40    
  96.865      49.293      27.786      21.669      20.739      24.029      31.526      43.722      62.861      89.252    
  118.35      141.62      150.57      141.62      118.35      89.252      62.861      43.722      31.526      24.029    
  20.739      21.669      27.786      49.293      96.865      167.40      243.93      303.05      168.98      156.46    
  123.84      83.545      49.293      28.986      20.665      16.987      16.367      18.574      23.592      31.514    
  42.479      56.927      72.895      85.806      90.804      85.806      72.895      56.927      42.479      31.514    
  23.592      18.574      16.367      16.987      20.665      28.986      49.293      83.545      123.84      156.46    
  75.199      69.725      55.921      40.004      27.786      20.665      16.064      13.542      12.989      14.226    
  17.233      22.053      28.505      35.981      43.650      49.725      52.070      49.725      43.650      35.981    
  28.505      22.053      17.233      14.226      12.989      13.542      16.064      20.665      27.786      40.004    
  55.921      69.725      39.055      37.186      32.527      27.014      21.669      16.987      13.542      11.485    
  10.719      11.121      12.648      15.285      18.888      23.042      27.024      29.935      31.007      29.935    
  27.024      23.042      18.888      15.285      12.648      11.121      10.719      11.485      13.542      16.987    
  21.669      27.014      32.527      37.186      34.779      33.568      30.249      25.642      20.739      16.367    
  12.989      10.719      9.4758      9.1359      9.6114      10.826      12.641      14.789      16.858      18.369    
  18.924      18.369      16.858      14.789      12.641      10.826      9.6114      9.1359      9.4758      10.719    
  12.989      16.367      20.739      25.642      30.249      33.568      41.079      39.622      35.623      30.037    
  24.029      18.574      14.226      11.121      9.1359      8.0742      7.7608      8.0510      8.7911      9.7825    
  10.777      11.513      11.785      11.513      10.777      9.7825      8.7911      8.0510      7.7608      8.0742    
  9.1359      11.121      14.226      18.574      24.029      30.037      35.623      39.622      57.340      54.984    
  48.677      40.253      31.526      23.592      17.233      12.648      9.6114      7.7608      6.7790      6.4252    
  6.5034      6.8344      7.2457      7.5766      7.7029      7.5766      7.2457      6.8344      6.5034      6.4252    
  6.7790      7.7608      9.6114      12.648      17.233      23.592      31.526      40.253      48.677      54.984    
  89.631      85.324      73.799      58.604      43.722      31.514      22.053      15.285      10.826      8.0510    
  6.4252      5.5671      5.2038      5.1379      5.2251      5.3455      5.3995      5.3455      5.2251      5.1379    
  5.2038      5.5671      6.4252      8.0510      10.826      15.285      22.053      31.514      43.722      58.604    
  73.799      85.324      142.36      135.03      115.25      88.831      62.861      42.479      28.505      18.888    