unknown system                          
   1.00000000000000     
     3.800000    0.000000    0.000000
     0.000000    3.800000    0.000000
     0.000000    0.000000    3.800000
   Sr   Fe   O 
     1     1     3
Direct
  0.500000  0.500000  0.500000
  0.000000  0.000000  0.000000
  0.500000  0.000000  0.000000
  0.000000  0.500000  0.000000
  0.000000  0.000000  0.500000
 
   32   32   32
 0.11217499121E+04 0.10626230041E+04 0.89887534310E+03 0.66910563996E+03 0.42788840967E+03
 0.22837754360E+03 0.10220950511E+03 0.48547309962E+02 0.40206037868E+02 0.47651215190E+02
 0.68248367736E+02 0.10947089266E+03 0.17564044692E+03 0.26178994393E+03 0.35123158596E+03
 0.41972713763E+03 0.44548391750E+03 0.41972713763E+03 0.35123158596E+03 0.26178994393E+03
 0.17564044692E+03 0.10947089266E+03 0.68248367736E+02 0.47651215190E+02 0.40206037868E+02
 0.48547309962E+02 0.10220950511E+03 0.22837754360E+03 0.42788840967E+03 0.66910563996E+03
 0.89887534310E+03 0.10626230041E+04 0.10626230041E+04 0.10058035189E+04 0.84875228324E+03
 0.62921343704E+03 0.40004021861E+03 0.21202585384E+03 0.94612155127E+02 0.45825732789E+02
 0.38753871896E+02 0.45884152663E+02 0.65281836668E+02 0.10409885157E+03 0.16670265357E+03
 0.24858635866E+03 0.33390426183E+03 0.39939952895E+03 0.42405794695E+03 0.39939952895E+03
 0.33390426183E+03 0.24858635866E+03 0.16670265357E+03 0.10409885157E+03 0.65281836668E+02
 0.45884152663E+02 0.38753871896E+02 0.45825732789E+02 0.94612155127E+02 0.21202585384E+03
 0.40004021861E+03 0.62921343704E+03 0.84875228324E+03 0.10058035189E+04 0.89887534310E+03
 0.84875228324E+03 0.71100341669E+03 0.52061316543E+03 0.32525935396E+03 0.16898089101E+03
 0.75198858881E+02 0.39055119344E+02 0.34779394340E+02 0.41079206757E+02 0.57340068236E+02
 0.89631256804E+02 0.14235822226E+03 0.21224644477E+03 0.28583387874E+03 0.34272457359E+03
 0.36421941165E+03 0.34272457359E+03 0.28583387874E+03 0.21224644477E+03 0.14235822226E+03
 0.89631256804E+02 0.57340068236E+02 0.41079206757E+02 0.34779394340E+02 0.39055119344E+02
 0.75198858881E+02 0.16898089101E+03 0.32525935396E+03 0.52061316543E+03 0.71100341669E+03
 0.84875228324E+03 0.66910563996E+03 0.62921343704E+03 0.52061316543E+03 0.37334184664E+03
 0.22668709196E+03 0.11459768709E+03 0.52190660741E+02 0.31293691958E+02 0.29269833416E+02
 0.34413878056E+02 0.46797243118E+02 0.70369066539E+02 0.10932214824E+03 0.16198848976E+03
 0.21837495068E+03 0.26246509941E+03 0.27921853466E+03 0.26246509941E+03 0.21837495068E+03
 0.16198848976E+03 0.10932214824E+03 0.70369066539E+02 0.46797243118E+02 0.34413878056E+02
 0.29269833416E+02 0.31293691958E+02 0.52190660741E+02 0.11459768709E+03 0.22668709196E+03
 0.37334184664E+03 0.52061316543E+03 0.62921343704E+03 0.42788840967E+03 0.40004021861E+03
 0.32525935396E+03 0.22668709196E+03 0.13299141712E+03 0.66516096246E+02 0.33875646215E+02
 0.24646186696E+02 0.23426063639E+02 0.27265022014E+02 0.36154609106E+02 0.51409881880E+02
 0.76246599281E+02 0.11046651117E+03 0.14787308007E+03 0.17756498595E+03 0.18893388542E+03
 0.17756498595E+03 0.14787308007E+03 0.11046651117E+03 0.76246599281E+02 0.51409881880E+02
 0.36154609106E+02 0.27265022014E+02 0.23426063639E+02 0.24646186696E+02 0.33875646215E+02
 0.66516096246E+02 0.13299141712E+03 0.22668709196E+03 0.32525935396E+03 0.40004021861E+03
 0.22837754360E+03 0.21202585384E+03 0.16898089101E+03 0.11459768709E+03 0.66516096246E+02
 0.36212358526E+02 0.23575122274E+02 0.19076444203E+02 0.18244218659E+02 0.20809178271E+02
 0.26747431478E+02 0.36185414481E+02 0.50027493257E+02 0.68867594639E+02 0.89775352216E+02
 0.10663177877E+03 0.11314229746E+03 0.10663177877E+03 0.89775352216E+02 0.68867594639E+02
 0.50027493257E+02 0.36185414481E+02 0.26747431478E+02 0.20809178271E+02 0.18244218659E+02
 0.19076444203E+02 0.23575122274E+02 0.36212358526E+02 0.66516096246E+02 0.11459768709E+03
 0.16898089101E+03 0.21202585384E+03 0.10220950511E+03 0.94612155127E+02 0.75198858881E+02
 0.52190660741E+02 0.33875646215E+02 0.23575122274E+02 0.18033600943E+02 0.14978802198E+02
 0.14274733089E+02 0.15707669049E+02 0.19247392068E+02 0.24948560794E+02 0.32602798284E+02
 0.41836254796E+02 0.51721572013E+02 0.59674762548E+02 0.62756920214E+02 0.59674762548E+02
 0.51721572013E+02 0.41836254796E+02 0.32602798284E+02 0.24948560794E+02 0.19247392068E+02
 0.15707669049E+02 0.14274733089E+02 0.14978802198E+02 0.18033600943E+02 0.23575122274E+02
 0.33875646215E+02 0.52190660741E+02 0.75198858881E+02 0.94612155127E+02 0.48547309962E+02
 0.45825732789E+02 0.39055119344E+02 0.31293691958E+02 0.24646186696E+02 0.19076444203E+02
 0.14978802198E+02 0.12541883296E+02 0.11637512405E+02 0.12105096706E+02 0.13891172030E+02
 0.16982677902E+02 0.21221198359E+02 0.26125922519E+02 0.30841446994E+02 0.34334610845E+02
 0.35646275585E+02 0.34334610845E+02 0.30841446994E+02 0.26125922519E+02 0.21221198359E+02
 0.16982677902E+02 0.13891172030E+02 0.12105096706E+02 0.11637512405E+02 0.12541883296E+02
 0.14978802198E+02 0.19076444203E+02 0.24646186696E+02 0.31293691958E+02 0.39055119344E+02
 0.45825732789E+02 0.40206037868E+02 0.38753871896E+02 0.34779394340E+02 0.29269833416E+02
 0.23426063639E+02 0.18244218659E+02 0.14274733089E+02 0.11637512405E+02 0.10210704770E+02
 0.98308777926E+01 0.10386902657E+02 0.11793158137E+02 0.13898126581E+02 0.16398036350E+02
 0.18815716990E+02 0.20585985494E+02 0.21237666249E+02 0.20585985494E+02 0.18815716990E+02
 0.16398036350E+02 0.13898126581E+02 0.11793158137E+02 0.10386902657E+02 0.98308777926E+01
 0.10210704770E+02 0.11637512405E+02 0.14274733089E+02 0.18244218659E+02 0.23426063639E+02
 0.29269833416E+02 0.34779394340E+02 0.38753871896E+02 0.47651215190E+02 0.45884152663E+02
 0.41079206757E+02 0.34413878056E+02 0.27265022014E+02 0.20809178271E+02 0.15707669049E+02
 0.12105096706E+02 0.98308777926E+01 0.86274784925E+01 0.82763628227E+01 0.86064142455E+01
 0.94445159416E+01 0.10569550821E+02 0.11702236610E+02 0.12543394848E+02 0.12854455886E+02
 0.12543394848E+02 0.11702236610E+02 0.10569550821E+02 0.94445159416E+01 0.86064142455E+01
 0.82763628227E+01 0.86274784925E+01 0.98308777926E+01 0.12105096706E+02 0.15707669049E+02
 0.20809178271E+02 0.27265022014E+02 0.34413878056E+02 0.41079206757E+02 0.45884152663E+02
 0.68248367736E+02 0.65281836668E+02 0.57340068236E+02 0.46797243118E+02 0.36154609106E+02
 0.26747431478E+02 0.19247392068E+02 0.13891172030E+02 0.10386902657E+02 0.82763628227E+01
 0.71640582725E+01 0.67591170979E+01 0.68334957275E+01 0.71871838128E+01 0.76330072706E+01
 0.79949784454E+01 0.81339183273E+01 0.79949784454E+01 0.76330072706E+01 0.71871838128E+01
 0.68334957275E+01 0.67591170979E+01 0.71640582725E+01 0.82763628227E+01 0.10386902657E+02
 0.13891172030E+02 0.19247392068E+02 0.26747431478E+02 0.36154609106E+02 0.46797243118E+02
 0.57340068236E+02 0.65281836668E+02 0.10947089266E+03 0.10409885157E+03 0.89631256804E+02
 0.70369066539E+02 0.51409881880E+02 0.36185414481E+02 0.24948560794E+02 0.16982677902E+02
 0.11793158137E+02 0.86064142455E+01 0.67591170979E+01 0.57864313736E+01 0.53632512126E+01
 0.52644414842E+01 0.53371300691E+01 0.54560351972E+01 0.55115851146E+01 0.54560351972E+01
 0.53371300691E+01 0.52644414842E+01 0.53632512126E+01 0.57864313736E+01 0.67591170979E+01
 0.86064142455E+01 0.11793158137E+02 0.16982677902E+02 0.24948560794E+02 0.36185414481E+02
 0.51409881880E+02 0.70369066539E+02 0.89631256804E+02 0.10409885157E+03 0.17564044692E+03
 0.16670265357E+03 0.14235822226E+03 0.10932214824E+03 0.76246599281E+02 0.50027493257E+02
 0.32602798284E+02 0.21221198359E+02 0.13898126581E+02 0.94445159416E+01 0.68334957275E+01
 0.53632512126E+01 0.45676665717E+01 0.41625884248E+01 0.40023682974E+01 0.39834903107E+01
 0.39954828399E+01 0.39834903107E+01 0.40023682974E+01 0.41625884248E+01 0.45676665717E+01
 0.53632512126E+01 0.68334957275E+01 0.94445159416E+01 0.13898126581E+02 0.21221198359E+02
 0.32602798284E+02 0.50027493257E+02 0.76246599281E+02 0.10932214824E+03 0.14235822226E+03
 0.16670265357E+03 0.26178994393E+03 0.24858635866E+03 0.21224644477E+03 0.16198848976E+03
 0.11046651117E+03 0.68867594639E+02 0.41836254796E+02 0.26125922519E+02 0.16398036350E+02
 0.10569550821E+02 0.71871838128E+01 0.52644414842E+01 0.41625884248E+01 0.35187117365E+01
 0.31844072958E+01 0.30701201683E+01 0.30544575305E+01 0.30701201683E+01 0.31844072958E+01
 0.35187117365E+01 0.41625884248E+01 0.52644414842E+01 0.71871838128E+01 0.10569550821E+02
 0.16398036350E+02 0.26125922519E+02 0.41836254796E+02 0.68867594639E+02 0.11046651117E+03
 0.16198848976E+03 0.21224644477E+03 0.24858635866E+03 0.35123158596E+03 0.33390426183E+03
 0.28583387874E+03 0.21837495068E+03 0.14787308007E+03 0.89775352216E+02 0.51721572013E+02
 0.30841446994E+02 0.18815716990E+02 0.11702236610E+02 0.76330072706E+01 0.53371300691E+01
 0.40023682974E+01 0.31844072958E+01 0.27272293580E+01 0.25503317106E+01 0.25182794398E+01
 0.25503317106E+01 0.27272293580E+01 0.31844072958E+01 0.40023682974E+01 0.53371300691E+01
 0.76330072706E+01 0.11702236610E+02 0.18815716990E+02 0.30841446994E+02 0.51721572013E+02
 0.89775352216E+02 0.14787308007E+03 0.21837495068E+03 0.28583387874E+03 0.33390426183E+03
 0.41972713763E+03 0.39939952895E+03 0.34272457359E+03 0.26246509941E+03 0.17756498595E+03
 0.10663177877E+03 0.59674762548E+02 0.34334610845E+02 0.20585985494E+02 0.12543394848E+02
 0.79949784454E+01 0.54560351972E+01 0.39834903107E+01 0.30701201683E+01 0.25503317106E+01
 0.23461240795E+01 0.23086434966E+01 0.23461240795E+01 0.25503317106E+01 0.30701201683E+01
 0.39834903107E+01 0.54560351972E+01 0.79949784454E+01 0.12543394848E+02 0.20585985494E+02
 0.34334610845E+02 0.59674762548E+02 0.10663177877E+03 0.17756498595E+03 0.26246509941E+03
 0.34272457359E+03 0.39939952895E+03 0.44548391750E+03 0.42405794695E+03 0.36421941165E+03
 0.27921853466E+03 0.18893388542E+03 0.11314229746E+03 0.62756920214E+02 0.35646275585E+02
 0.21237666249E+02 0.12854455886E+02 0.81339183273E+01 0.55115851146E+01 0.39954828399E+01
 0.30544575305E+01 0.25182794398E+01 0.23086434966E+01 0.22708217873E+01 0.23086434966E+01
 0.25182794398E+01 0.30544575305E+01 0.39954828399E+01 0.55115851146E+01 0.81339183273E+01
 0.12854455886E+02 0.21237666249E+02 0.35646275585E+02 0.62756920214E+02 0.11314229746E+03
 0.18893388542E+03 0.27921853466E+03 0.36421941165E+03 0.42405794695E+03 0.41972713763E+03
 0.39939952895E+03 0.34272457359E+03 0.26246509941E+03 0.17756498595E+03 0.10663177877E+03
 0.59674762548E+02 0.34334610845E+02 0.20585985494E+02 0.12543394848E+02 0.79949784454E+01
 0.54560351972E+01 0.39834903107E+01 0.30701201683E+01 0.25503317106E+01 0.23461240795E+01
 0.23086434966E+01 0.23461240795E+01 0.25503317106E+01 0.30701201683E+01 0.39834903107E+01
 0.54560351972E+01 0.79949784454E+01 0.12543394848E+02 0.20585985494E+02 0.34334610845E+02
 0.59674762548E+02 0.10663177877E+03 0.17756498595E+03 0.26246509941E+03 0.34272457359E+03
 0.39939952895E+03 0.35123158596E+03 0.33390426183E+03 0.28583387874E+03 0.21837495068E+03
 0.14787308007E+03 0.89775352216E+02 0.51721572013E+02 0.30841446994E+02 0.18815716990E+02
 0.11702236610E+02 0.76330072706E+01 0.53371300691E+01 0.40023682974E+01 0.31844072958E+01
 0.27272293580E+01 0.25503317106E+01 0.25182794398E+01 0.25503317106E+01 0.27272293580E+01
 0.31844072958E+01 0.40023682974E+01 0.53371300691E+01 0.76330072706E+01 0.11702236610E+02
 0.18815716990E+02 0.30841446994E+02 0.51721572013E+02 0.89775352216E+02 0.14787308007E+03
 0.21837495068E+03 0.28583387874E+03 0.33390426183E+03 0.26178994393E+03 0.24858635866E+03
 0.21224644477E+03 0.16198848976E+03 0.11046651117E+03 0.68867594639E+02 0.41836254796E+02
 0.26125922519E+02 0.16398036350E+02 0.10569550821E+02 0.71871838128E+01 0.52644414842E+01
 0.41625884248E+01 0.35187117365E+01 0.31844072958E+01 0.30701201683E+01 0.30544575305E+01
 0.30701201683E+01 0.31844072958E+01 0.35187117365E+01 0.41625884248E+01 0.52644414842E+01
 0.71871838128E+01 0.10569550821E+02 0.16398036350E+02 0.26125922519E+02 0.41836254796E+02
 0.68867594639E+02 0.11046651117E+03 0.16198848976E+03 0.21224644477E+03 0.24858635866E+03
 0.17564044692E+03 0.16670265357E+03 0.14235822226E+03 0.10932214824E+03 0.76246599281E+02
 0.50027493257E+02 0.32602798284E+02 0.21221198359E+02 0.13898126581E+02 0.94445159416E+01
 0.68334957275E+01 0.53632512126E+01 0.45676665717E+01 0.41625884248E+01 0.40023682974E+01
 0.39834903107E+01 0.39954828399E+01 0.39834903107E+01 0.40023682974E+01 0.41625884248E+01
 0.45676665717E+01 0.53632512126E+01 0.68334957275E+01 0.94445159416E+01 0.13898126581E+02
 0.21221198359E+02 0.32602798284E+02 0.50027493257E+02 0.76246599281E+02 0.10932214824E+03
 0.14235822226E+03 0.16670265357E+03 0.10947089266E+03 0.10409885157E+03 0.89631256804E+02
 0.70369066539E+02 0.51409881880E+02 0.36185414481E+02 0.24948560794E+02 0.16982677902E+02
 0.11793158137E+02 0.86064142455E+01 0.67591170979E+01 0.57864313736E+01 0.53632512126E+01
 0.52644414842E+01 0.53371300691E+01 0.54560351972E+01 0.55115851146E+01 0.54560351972E+01
 0.53371300691E+01 0.52644414842E+01 0.53632512126E+01 0.57864313736E+01 0.67591170979E+01
 0.86064142455E+01 0.11793158137E+02 0.16982677902E+02 0.24948560794E+02 0.36185414481E+02
 0.51409881880E+02 0.70369066539E+02 0.89631256804E+02 0.10409885157E+03 0.68248367736E+02
 0.65281836668E+02 0.57340068236E+02 0.46797243118E+02 0.36154609106E+02 0.26747431478E+02
 0.19247392068E+02 0.13891172030E+02 0.10386902657E+02 0.82763628227E+01 0.71640582725E+01
 0.67591170979E+01 0.68334957275E+01 0.71871838128E+01 0.76330072706E+01 0.79949784454E+01
 0.81339183273E+01 0.79949784454E+01 0.76330072706E+01 0.71871838128E+01 0.68334957275E+01
 0.67591170979E+01 0.71640582725E+01 0.82763628227E+01 0.10386902657E+02 0.13891172030E+02
 0.19247392068E+02 0.26747431478E+02 0.36154609106E+02 0.46797243118E+02 0.57340068236E+02
 0.65281836668E+02 0.47651215190E+02 0.45884152663E+02 0.41079206757E+02 0.34413878056E+02
 0.27265022014E+02 0.20809178271E+02 0.15707669049E+02 0.12105096706E+02 0.98308777926E+01
 0.86274784925E+01 0.82763628227E+01 0.86064142455E+01 0.94445159416E+01 0.10569550821E+02
 0.11702236610E+02 0.12543394848E+02 0.12854455886E+02 0.12543394848E+02 0.11702236610E+02
 0.10569550821E+02 0.94445159416E+01 0.86064142455E+01 0.82763628227E+01 0.86274784925E+01
 0.98308777926E+01 0.12105096706E+02 0.15707669049E+02 0.20809178271E+02 0.27265022014E+02
 0.34413878056E+02 0.41079206757E+02 0.45884152663E+02 0.40206037868E+02 0.38753871896E+02
 0.34779394340E+02 0.29269833416E+02 0.23426063639E+02 0.18244218659E+02 0.14274733089E+02
 0.11637512405E+02 0.10210704770E+02 0.98308777926E+01 0.10386902657E+02 0.11793158137E+02
 0.13898126581E+02 0.16398036350E+02 0.18815716990E+02 0.20585985494E+02 0.21237666249E+02
 0.20585985494E+02 0.18815716990E+02 0.16398036350E+02 0.13898126581E+02 0.11793158137E+02
 0.10386902657E+02 0.98308777926E+01 0.10210704770E+02 0.11637512405E+02 0.14274733089E+02
 0.18244218659E+02 0.23426063639E+02 0.29269833416E+02 0.34779394340E+02 0.38753871896E+02
 0.48547309962E+02 0.45825732789E+02 0.39055119344E+02 0.31293691958E+02 0.24646186696E+02
 0.19076444203E+02 0.14978802198E+02 0.12541883296E+02 0.11637512405E+02 0.12105096706E+02
 0.13891172030E+02 0.16982677902E+02 0.21221198359E+02 0.26125922519E+02 0.30841446994E+02
 0.34334610845E+02 0.35646275585E+02 0.34334610845E+02 0.30841446994E+02 0.26125922519E+02
 0.21221198359E+02 0.16982677902E+02 0.13891172030E+02 0.12105096706E+02 0.11637512405E+02
 0.12541883296E+02 0.14978802198E+02 0.19076444203E+02 0.24646186696E+02 0.31293691958E+02
 0.39055119344E+02 0.45825732789E+02 0.10220950511E+03 0.94612155127E+02 0.75198858881E+02
 0.52190660741E+02 0.33875646215E+02 0.23575122274E+02 0.18033600943E+02 0.14978802198E+02
 0.14274733089E+02 0.15707669049E+02 0.19247392068E+02 0.24948560794E+02 0.32602798284E+02
 0.41836254796E+02 0.51721572013E+02 0.59674762548E+02 0.62756920214E+02 0.59674762548E+02
 0.51721572013E+02 0.41836254796E+02 0.32602798284E+02 0.24948560794E+02 0.19247392068E+02
 0.15707669049E+02 0.14274733089E+02 0.14978802198E+02 0.18033600943E+02 0.23575122274E+02
 0.33875646215E+02 0.52190660741E+02 0.75198858881E+02 0.94612155127E+02 0.22837754360E+03
 0.21202585384E+03 0.16898089101E+03 0.11459768709E+03 0.66516096246E+02 0.36212358526E+02
 0.23575122274E+02 0.19076444203E+02 0.18244218659E+02 0.20809178271E+02 0.26747431478E+02
 0.36185414481E+02 0.50027493257E+02 0.68867594639E+02 0.89775352216E+02 0.10663177877E+03
 0.11314229746E+03 0.10663177877E+03 0.89775352216E+02 0.68867594639E+02 0.50027493257E+02
 0.36185414481E+02 0.26747431478E+02 0.20809178271E+02 0.18244218659E+02 0.19076444203E+02
 0.23575122274E+02 0.36212358526E+02 0.66516096246E+02 0.11459768709E+03 0.16898089101E+03
 0.21202585384E+03 0.42788840967E+03 0.40004021861E+03 0.32525935396E+03 0.22668709196E+03
 0.13299141712E+03 0.66516096246E+02 0.33875646215E+02 0.24646186696E+02 0.23426063639E+02
 0.27265022014E+02 0.36154609106E+02 0.51409881880E+02 0.76246599281E+02 0.11046651117E+03
 0.14787308007E+03 0.17756498595E+03 0.18893388542E+03 0.17756498595E+03 0.14787308007E+03
 0.11046651117E+03 0.76246599281E+02 0.51409881880E+02 0.36154609106E+02 0.27265022014E+02
 0.23426063639E+02 0.24646186696E+02 0.33875646215E+02 0.66516096246E+02 0.13299141712E+03
 0.22668709196E+03 0.32525935396E+03 0.40004021861E+03 0.66910563996E+03 0.62921343704E+03
 0.52061316543E+03 0.37334184664E+03 0.22668709196E+03 0.11459768709E+03 0.52190660741E+02
 0.31293691958E+02 0.29269833416E+02 0.34413878056E+02 0.46797243118E+02 0.70369066539E+02
 0.10932214824E+03 0.16198848976E+03 0.21837495068E+03 0.26246509941E+03 0.27921853466E+03
 0.26246509941E+03 0.21837495068E+03 0.16198848976E+03 0.10932214824E+03 0.70369066539E+02
 0.46797243118E+02 0.34413878056E+02 0.29269833416E+02 0.31293691958E+02 0.52190660741E+02
 0.11459768709E+03 0.22668709196E+03 0.37334184664E+03 0.52061316543E+03 0.62921343704E+03
 0.89887534310E+03 0.84875228324E+03 0.71100341669E+03 0.52061316543E+03 0.32525935396E+03
 0.16898089101E+03 0.75198858881E+02 0.39055119344E+02 0.34779394340E+02 0.41079206757E+02
 0.57340068236E+02 0.89631256804E+02 0.14235822226E+03 0.21224644477E+03 0.28583387874E+03
 0.34272457359E+03 0.36421941165E+03 0.34272457359E+03 0.28583387874E+03 0.21224644477E+03
 0.14235822226E+03 0.89631256804E+02 0.57340068236E+02 0.41079206757E+02 0.34779394340E+02
 0.39055119344E+02 0.75198858881E+02 0.16898089101E+03 0.32525935396E+03 0.52061316543E+03
 0.71100341669E+03 0.84875228324E+03 0.10626230041E+04 0.10058035189E+04 0.84875228324E+03
 0.62921343704E+03 0.40004021861E+03 0.21202585384E+03 0.94612155127E+02 0.45825732789E+02
 0.38753871896E+02 0.45884152663E+02 0.65281836668E+02 0.10409885157E+03 0.16670265357E+03
 0.24858635866E+03 0.33390426183E+03 0.39939952895E+03 0.42405794695E+03 0.39939952895E+03
 0.33390426183E+03 0.24858635866E+03 0.16670265357E+03 0.10409885157E+03 0.65281836668E+02
 0.45884152663E+02 0.38753871896E+02 0.45825732789E+02 0.94612155127E+02 0.21202585384E+03
 0.40004021861E+03 0.62921343704E+03 0.84875228324E+03 0.10058035189E+04 0.10626230041E+04
 0.10058035189E+04 0.84875228324E+03 0.62921343704E+03 0.40004021861E+03 0.21202585384E+03
 0.94612155127E+02 0.45825732789E+02 0.38753871896E+02 0.45884152663E+02 0.65281836668E+02
 0.10409885157E+03 0.16670265357E+03 0.24858635866E+03 0.33390426183E+03 0.39939952895E+03
 0.42405794695E+03 0.39939952895E+03 0.33390426183E+03 0.24858635866E+03 0.16670265357E+03
 0.10409885157E+03 0.65281836668E+02 0.45884152663E+02 0.38753871896E+02 0.45825732789E+02
 0.94612155127E+02 0.21202585384E+03 0.40004021861E+03 0.62921343704E+03 0.84875228324E+03
 0.10058035189E+04 0.10058035189E+04 0.95125381999E+03 0.80076755305E+03 0.59120082233E+03
 0.37368286686E+03 0.19670061571E+03 0.87595788227E+02 0.43347394476E+02 0.37366116428E+02
 0.44203467933E+02 0.62480765000E+02 0.99008722698E+02 0.15818302164E+03 0.23593161306E+03
 0.31722774175E+03 0.37978418476E+03 0.40336426704E+03 0.37978418476E+03 0.31722774175E+03
 0.23593161306E+03 0.15818302164E+03 0.99008722698E+02 0.62480765000E+02 0.44203467933E+02
 0.37366116428E+02 0.43347394476E+02 0.87595788227E+02 0.19670061571E+03 0.37368286686E+03
 0.59120082233E+03 0.80076755305E+03 0.95125381999E+03 0.84875228324E+03 0.80076755305E+03
 0.66914696303E+03 0.48791755810E+03 0.30305336222E+03 0.15645883825E+03 0.69724700137E+02
 0.37186100237E+02 0.33567541881E+02 0.39622191433E+02 0.54984232222E+02 0.85324387085E+02
 0.13503180419E+03 0.20119534058E+03 0.27109806512E+03 0.32526420138E+03 0.34575313620E+03
 0.32526420138E+03 0.27109806512E+03 0.20119534058E+03 0.13503180419E+03 0.85324387085E+02
 0.54984232222E+02 0.39622191433E+02 0.33567541881E+02 0.37186100237E+02 0.69724700137E+02
 0.15645883825E+03 0.30305336222E+03 0.48791755810E+03 0.66914696303E+03 0.80076755305E+03
 0.62921343704E+03 0.59120082233E+03 0.48791755810E+03 0.34840886158E+03 0.21036247112E+03
 0.10589272927E+03 0.48688276806E+02 0.30096053120E+02 0.28300198279E+02 0.33246171101E+02
 0.45025399907E+02 0.67156781418E+02 0.10374629351E+03 0.15338592337E+03 0.20669901004E+03
 0.24847700816E+03 0.26436929256E+03 0.24847700816E+03 0.20669901004E+03 0.15338592337E+03
 0.10374629351E+03 0.67156781418E+02 0.45025399907E+02 0.33246171101E+02 0.28300198279E+02
 0.30096053120E+02 0.48688276806E+02 0.10589272927E+03 0.21036247112E+03 0.34840886158E+03
 0.48791755810E+03 0.59120082233E+03 0.40004021861E+03 0.37368286686E+03 0.30305336222E+03
 0.21036247112E+03 0.12290646206E+03 0.61605560058E+02 0.32110136469E+02 0.23851528560E+02
 0.22709396033E+02 0.26403044333E+02 0.34920150387E+02 0.49312435054E+02 0.72580702279E+02
 0.10467358098E+03 0.13984030390E+03 0.16780868119E+03 0.17852857105E+03 0.16780868119E+03
 0.13984030390E+03 0.10467358098E+03 0.72580702279E+02 0.49312435054E+02 0.34920150387E+02
 0.26403044333E+02 0.22709396033E+02 0.23851528560E+02 0.32110136469E+02 0.61605560058E+02
 0.12290646206E+03 0.21036247112E+03 0.30305336222E+03 0.37368286686E+03 0.21202585384E+03
 0.19670061571E+03 0.15645883825E+03 0.10589272927E+03 0.61605560058E+02 0.34112766822E+02
 0.22782326174E+02 0.18519427434E+02 0.17745325553E+02 0.20215664592E+02 0.25908716762E+02
 0.34932414277E+02 0.47961556424E+02 0.65584749907E+02 0.85137855372E+02 0.10091822217E+03
 0.10701751459E+03 0.10091822217E+03 0.85137855372E+02 0.65584749907E+02 0.47961556424E+02
 0.34932414277E+02 0.25908716762E+02 0.20215664592E+02 0.17745325553E+02 0.18519427434E+02
 0.22782326174E+02 0.34112766822E+02 0.61605560058E+02 0.10589272927E+03 0.15645883825E+03
 0.19670061571E+03 0.94612155127E+02 0.87595788227E+02 0.69724700137E+02 0.48688276806E+02
 0.32110136469E+02 0.22782326174E+02 0.17508257542E+02 0.14597173062E+02 0.13934794656E+02
 0.15316127687E+02 0.18713622681E+02 0.24179449616E+02 0.31509754038E+02 0.40239407297E+02
 0.49500683820E+02 0.56930200650E+02 0.59807360180E+02 0.56930200650E+02 0.49500683820E+02
 0.40239407297E+02 0.31509754038E+02 0.24179449616E+02 0.18713622681E+02 0.15316127687E+02
 0.13934794656E+02 0.14597173062E+02 0.17508257542E+02 0.22782326174E+02 0.32110136469E+02
 0.48688276806E+02 0.69724700137E+02 0.87595788227E+02 0.45825732789E+02 0.43347394476E+02
 0.37186100237E+02 0.30096053120E+02 0.23851528560E+02 0.18519427434E+02 0.14597173062E+02
 0.12263023242E+02 0.11396244710E+02 0.11846347307E+02 0.13563326874E+02 0.16533138472E+02
 0.20601316576E+02 0.25305141332E+02 0.29823785307E+02 0.33149595746E+02 0.34392038791E+02
 0.33149595746E+02 0.29823785307E+02 0.25305141332E+02 0.20601316576E+02 0.16533138472E+02
 0.13563326874E+02 0.11846347307E+02 0.11396244710E+02 0.12263023242E+02 0.14597173062E+02
 0.18519427434E+02 0.23851528560E+02 0.30096053120E+02 0.37186100237E+02 0.43347394476E+02
 0.38753871896E+02 0.37366116428E+02 0.33567541881E+02 0.28300198279E+02 0.22709396033E+02
 0.17745325553E+02 0.13934794656E+02 0.11396244710E+02 0.10018404264E+02 0.96490415294E+01
 0.10183241310E+02 0.11537865987E+02 0.13565007279E+02 0.15970458470E+02 0.18294655647E+02
 0.19995216027E+02 0.20620979928E+02 0.19995216027E+02 0.18294655647E+02 0.15970458470E+02
 0.13565007279E+02 0.11537865987E+02 0.10183241310E+02 0.96490415294E+01 0.10018404264E+02
 0.11396244710E+02 0.13934794656E+02 0.17745325553E+02 0.22709396033E+02 0.28300198279E+02
 0.33567541881E+02 0.37366116428E+02 0.45884152663E+02 0.44203467933E+02 0.39622191433E+02
 0.33246171101E+02 0.26403044333E+02 0.20215664592E+02 0.15316127687E+02 0.11846347307E+02
 0.96490415294E+01 0.84829010902E+01 0.81412311341E+01 0.84600346252E+01 0.92714354037E+01
 0.10360362801E+02 0.11455807282E+02 0.12268608365E+02 0.12569020808E+02 0.12268608365E+02
 0.11455807282E+02 0.10360362801E+02 0.92714354037E+01 0.84600346252E+01 0.81412311341E+01
 0.84829010902E+01 0.96490415294E+01 0.11846347307E+02 0.15316127687E+02 0.20215664592E+02
 0.26403044333E+02 0.33246171101E+02 0.39622191433E+02 0.44203467933E+02 0.65281836668E+02
 0.62480765000E+02 0.54984232222E+02 0.45025399907E+02 0.34920150387E+02 0.25908716762E+02
 0.18713622681E+02 0.13563326874E+02 0.10183241310E+02 0.81412311341E+01 0.70627943367E+01
 0.66705883994E+01 0.67452109520E+01 0.70922461975E+01 0.75284570221E+01 0.78818434446E+01
 0.80172999576E+01 0.78818434446E+01 0.75284570221E+01 0.70922461975E+01 0.67452109520E+01
 0.66705883994E+01 0.70627943367E+01 0.81412311341E+01 0.10183241310E+02 0.13563326874E+02
 0.18713622681E+02 0.25908716762E+02 0.34920150387E+02 0.45025399907E+02 0.54984232222E+02
 0.62480765000E+02 0.10409885157E+03 0.99008722698E+02 0.85324387085E+02 0.67156781418E+02
 0.49312435054E+02 0.34932414277E+02 0.24179449616E+02 0.16533138472E+02 0.11537865987E+02
 0.84600346252E+01 0.66705883994E+01 0.57272142564E+01 0.53189431889E+01 0.52280764626E+01
 0.53040629645E+01 0.54229853755E+01 0.54779933708E+01 0.54229853755E+01 0.53040629645E+01
 0.52280764626E+01 0.53189431889E+01 0.57272142564E+01 0.66705883994E+01 0.84600346252E+01
 0.11537865987E+02 0.16533138472E+02 0.24179449616E+02 0.34932414277E+02 0.49312435054E+02
 0.67156781418E+02 0.85324387085E+02 0.99008722698E+02 0.16670265357E+03 0.15818302164E+03
 0.13503180419E+03 0.10374629351E+03 0.72580702279E+02 0.47961556424E+02 0.31509754038E+02
 0.20601316576E+02 0.13565007279E+02 0.92714354037E+01 0.67452109520E+01 0.53189431889E+01
 0.45481681846E+01 0.41596102619E+01 0.40096184129E+01 0.39947729682E+01 0.40074100975E+01
 0.39947729682E+01 0.40096184129E+01 0.41596102619E+01 0.45481681846E+01 0.53189431889E+01
 0.67452109520E+01 0.92714354037E+01 0.13565007279E+02 0.20601316576E+02 0.31509754038E+02
 0.47961556424E+02 0.72580702279E+02 0.10374629351E+03 0.13503180419E+03 0.15818302164E+03
 0.24858635866E+03 0.23593161306E+03 0.20119534058E+03 0.15338592337E+03 0.10467358098E+03
 0.65584749907E+02 0.40239407297E+02 0.25305141332E+02 0.15970458470E+02 0.10360362801E+02
 0.70922461975E+01 0.52280764626E+01 0.41596102619E+01 0.35390345553E+01 0.32200780053E+01
 0.31124197822E+01 0.30980351323E+01 0.31124197822E+01 0.32200780053E+01 0.35390345553E+01
 0.41596102619E+01 0.52280764626E+01 0.70922461975E+01 0.10360362801E+02 0.15970458470E+02
 0.25305141332E+02 0.40239407297E+02 0.65584749907E+02 0.10467358098E+03 0.15338592337E+03
 0.20119534058E+03 0.23593161306E+03 0.33390426183E+03 0.31722774175E+03 0.27109806512E+03
 0.20669901004E+03 0.13984030390E+03 0.85137855372E+02 0.49500683820E+02 0.29823785307E+02
 0.18294655647E+02 0.11455807282E+02 0.75284570221E+01 0.53040629645E+01 0.40096184129E+01
 0.32200780053E+01 0.27818964499E+01 0.26132385812E+01 0.25827584618E+01 0.26132385812E+01
 0.27818964499E+01 0.32200780053E+01 0.40096184129E+01 0.53040629645E+01 0.75284570221E+01
 0.11455807282E+02 0.18294655647E+02 0.29823785307E+02 0.49500683820E+02 0.85137855372E+02
 0.13984030390E+03 0.20669901004E+03 0.27109806512E+03 0.31722774175E+03 0.39939952895E+03
 0.37978418476E+03 0.32526420138E+03 0.24847700816E+03 0.16780868119E+03 0.10091822217E+03
 0.56930200650E+02 0.33149595746E+02 0.19995216027E+02 0.12268608365E+02 0.78818434446E+01
 0.54229853755E+01 0.39947729682E+01 0.31124197822E+01 0.26132385812E+01 0.24177061544E+01
 0.23817470408E+01 0.24177061544E+01 0.26132385812E+01 0.31124197822E+01 0.39947729682E+01
 0.54229853755E+01 0.78818434446E+01 0.12268608365E+02 0.19995216027E+02 0.33149595746E+02
 0.56930200650E+02 0.10091822217E+03 0.16780868119E+03 0.24847700816E+03 0.32526420138E+03
 0.37978418476E+03 0.42405794695E+03 0.40336426704E+03 0.34575313620E+03 0.26436929256E+03
 0.17852857105E+03 0.10701751459E+03 0.59807360180E+02 0.34392038791E+02 0.20620979928E+02
 0.12569020808E+02 0.80172999576E+01 0.54779933708E+01 0.40074100975E+01 0.30980351323E+01
 0.25827584618E+01 0.23817470408E+01 0.23453523515E+01 0.23817470408E+01 0.25827584618E+01
 0.30980351323E+01 0.40074100975E+01 0.54779933708E+01 0.80172999576E+01 0.12569020808E+02
 0.20620979928E+02 0.34392038791E+02 0.59807360180E+02 0.10701751459E+03 0.17852857105E+03
 0.26436929256E+03 0.34575313620E+03 0.40336426704E+03 0.39939952895E+03 0.37978418476E+03
 0.32526420138E+03 0.24847700816E+03 0.16780868119E+03 0.10091822217E+03 0.56930200650E+02
 0.33149595746E+02 0.19995216027E+02 0.12268608365E+02 0.78818434446E+01 0.54229853755E+01
 0.39947729682E+01 0.31124197822E+01 0.26132385812E+01 0.24177061544E+01 0.23817470408E+01
 0.24177061544E+01 0.26132385812E+01 0.31124197822E+01 0.39947729682E+01 0.54229853755E+01
 0.78818434446E+01 0.12268608365E+02 0.19995216027E+02 0.33149595746E+02 0.56930200650E+02
 0.10091822217E+03 0.16780868119E+03 0.24847700816E+03 0.32526420138E+03 0.37978418476E+03
 0.33390426183E+03 0.31722774175E+03 0.27109806512E+03 0.20669901004E+03 0.13984030390E+03
 0.85137855372E+02 0.49500683820E+02 0.29823785307E+02 0.18294655647E+02 0.11455807282E+02
 0.75284570221E+01 0.53040629645E+01 0.40096184129E+01 0.32200780053E+01 0.27818964499E+01
 0.26132385812E+01 0.25827584618E+01 0.26132385812E+01 0.27818964499E+01 0.32200780053E+01
 0.40096184129E+01 0.53040629645E+01 0.75284570221E+01 0.11455807282E+02 0.18294655647E+02