    5    5   99    2
  0.1097440E+02  0.3800000E-09  0.3800000E-09  0.3800000E-09  0.5000000E-15
  1.000000000000000E-004
  CAR 
 unknown system                          
     42     10     28
 
  0.8333333E-01  0.8333333E-01  0.8333333E-01  0.3703704E-01
    1      -53.772696    -49.612690   1.000000   1.000000
    2      -53.772320    -49.612388   1.000000   1.000000
    3      -53.772320    -49.612388   1.000000   1.000000
    4      -29.085800    -29.078836   1.000000   1.000000
    5      -15.111501    -14.970267   1.000000   1.000000
    6      -13.784385    -13.371416   1.000000   1.000000
    7      -13.784385    -13.371416   1.000000   1.000000
    8      -11.155408    -11.132759   1.000000   1.000000
    9      -11.155408    -11.132759   1.000000   1.000000
   10      -11.077747    -11.062608   1.000000   1.000000
   11       -3.575457     -1.085773   1.000000   1.000000
   12       -3.575457     -0.866931   1.000000   1.000000
   13       -3.565388     -0.866931   1.000000   1.000000
   14       -2.269846      1.613864   1.000000   1.000000
   15       -2.269846      1.613864   1.000000   1.000000
   16       -1.195069      2.099003   1.000000   1.000000
   17       -0.220825      2.121320   1.000000   1.000000
   18       -0.220825      2.473647   1.000000   1.000000
   19        1.685136      2.473648   1.000000   1.000000
   20        1.685136      4.498185   1.000000   0.000000
   21        1.912833      4.553074   1.000000   0.000000
   22        2.202168      4.553073   1.000000   0.000000
   23        2.687105      5.213848   1.000453   0.000000
   24        2.687105      5.213848   1.045514   0.000000
   25        9.239076      9.304273   0.000000   0.000000
   26        9.239088      9.304297   0.000000   0.000000
   27       10.594725     10.739700   0.000000   0.000000
   28       11.705398     12.000771   0.000000   0.000000
 
  0.2500000E+00  0.8333333E-01  0.8333333E-01  0.1111111E+00
    1      -53.773717    -49.614190   1.000000   1.000000
    2      -53.772568    -49.612533   1.000000   1.000000
    3      -53.772474    -49.612483   1.000000   1.000000
    4      -29.070164    -29.063330   1.000000   1.000000
    5      -15.093085    -14.945550   1.000000   1.000000
    6      -13.844997    -13.558872   1.000000   1.000000
    7      -13.753058    -13.334981   1.000000   1.000000
    8      -11.146638    -11.125391   1.000000   1.000000
    9      -11.093522    -11.068750   1.000000   1.000000
   10      -10.855914    -10.814266   1.000000   1.000000
   11       -3.761965     -1.555867   1.000000   1.000000
   12       -3.721687     -0.896024   1.000000   1.000000
   13       -3.668773     -0.849073   1.000000   1.000000
   14       -3.574979      0.903471   1.000000   1.000000
   15       -2.266303      0.941093   1.000000   1.000000
   16       -1.199529      1.580065   1.000000   1.000000
   17       -0.176818      1.946645   1.000000   1.000000
   18        0.628265      2.114145   1.000000   1.000000
   19        1.312889      2.246682   1.000000   1.000000
   20        1.708964      4.560182   1.000000   0.000000
   21        1.853590      5.100825   1.000000   0.000000
   22        1.953271      5.169317   1.000000   0.000000
   23        2.564025      5.284115   1.004236   0.000000
   24        2.954312      6.208755   0.891033   0.000000
   25       10.015799     10.104944   0.000000   0.000000
   26       10.102455     10.169924   0.000000   0.000000
   27       11.545065     11.640140   0.000000   0.000000
   28       11.838026     12.045433   0.000000   0.000000
 
  0.4166667E+00  0.8333333E-01  0.8333333E-01  0.1111111E+00
    1      -53.774339    -49.615485   1.000000   1.000000
    2      -53.772422    -49.612392   1.000000   1.000000
    3      -53.772396    -49.612359   1.000000   1.000000
    4      -29.054413    -29.047709   1.000000   1.000000
    5      -15.135732    -14.962594   1.000000   1.000000
    6      -13.788549    -13.641652   1.000000   1.000000
    7      -13.718759    -13.295851   1.000000   1.000000
    8      -11.138195    -11.118503   1.000000   1.000000
    9      -11.040314    -11.021390   1.000000   1.000000
   10      -10.661220    -10.609731   1.000000   1.000000
   11       -4.660959     -1.976479   1.000000   1.000000
   12       -3.895550     -0.890990   1.000000   1.000000
   13       -3.851128     -0.831532   1.000000   1.000000
   14       -3.579379      0.161682   1.000000   1.000000
   15       -2.271406      0.511600   1.000000   1.000000
   16       -1.129925      1.402539   1.000000   1.000000
   17       -0.179319      1.654220   1.000000   1.000000
   18        0.540689      1.802172   1.000000   1.000000
   19        1.032726      2.070432   1.000000   1.000000
   20        1.688932      4.592306   1.000000   0.000000
   21        2.066819      5.188028   1.000000   0.000000
   22        2.091053      5.708101   1.000000   0.000000
   23        2.344280      5.729946   1.008600   0.000000
   24        3.123704      6.870270   0.595101   0.000000
   25       10.882595     10.975841   0.000000   0.000000
   26       11.176881     11.241832   0.000000   0.000000
   27       11.947579     12.006439   0.000000   0.000000
   28       12.804017     12.965421   0.000000   0.000000
 
  0.2500000E+00  0.2500000E+00  0.8333333E-01  0.1111111E+00
    1      -53.773409    -49.613954   1.000000   1.000000
    2      -53.773408    -49.613900   1.000000   1.000000
    3      -53.772338    -49.612331   1.000000   1.000000
    4      -29.055653    -29.048924   1.000000   1.000000
    5      -14.956167    -14.814483   1.000000   1.000000
    6      -13.936784    -13.683356   1.000000   1.000000
    7      -13.741169    -13.387379   1.000000   1.000000
    8      -11.127736    -11.106092   1.000000   1.000000
    9      -11.017998    -10.966233   1.000000   1.000000
   10      -10.811654    -10.786835   1.000000   1.000000
   11       -3.968898     -1.872964   1.000000   1.000000
   12       -3.917795     -1.067496   1.000000   1.000000
   13       -3.762716     -0.787446   1.000000   1.000000
   14       -3.739730     -0.037915   1.000000   1.000000
   15       -3.333467      0.789608   1.000000   1.000000
   16       -1.223421      1.037917   1.000000   1.000000
   17        0.368652      1.882866   1.000000   1.000000
   18        1.073090      1.974024   1.000000   1.000000
   19        1.216360      2.465866   1.000000   1.000000
   20        1.382567      5.116452   1.000000   0.000000
   21        1.657171      5.241032   1.000000   0.000000
   22        2.186996      5.375059   1.000000   0.000000
   23        2.523125      5.677866   1.023141   0.000000
   24        3.621252      6.886412   0.081479   0.000000
   25       10.486054     10.611064   0.000000   0.000000
   26       10.898476     10.973510   0.000000   0.000000
   27       11.806678     11.837504   0.000000   0.000000
   28       12.493742     12.587423   0.000000   0.000000
 
  0.4166667E+00  0.2500000E+00  0.8333333E-01  0.2222222E+00
    1      -53.774438    -49.615470   1.000000   1.000000
    2      -53.773284    -49.613793   1.000000   1.000000
    3      -53.772245    -49.612221   1.000000   1.000000
    4      -29.041064    -29.034446   1.000000   1.000000
    5      -14.866456    -14.701149   1.000000   1.000000
    6      -13.940353    -13.795152   1.000000   1.000000
    7      -13.736088    -13.395498   1.000000   1.000000
    8      -11.135206    -11.115270   1.000000   1.000000
    9      -10.932783    -10.905756   1.000000   1.000000
   10      -10.767984    -10.728435   1.000000   1.000000
   11       -4.699409     -2.217411   1.000000   1.000000
   12       -4.162028     -1.167338   1.000000   1.000000
   13       -3.898788     -0.752402   1.000000   1.000000
   14       -3.776255     -0.650300   1.000000   1.000000
   15       -3.534985      0.388777   1.000000   1.000000
   16       -1.088489      1.000716   1.000000   1.000000
   17        0.544678      1.605200   1.000000   1.000000
   18        0.750566      1.844374   1.000000   1.000000
   19        1.175998      2.573187   1.000000   1.000000
   20        1.425057      5.191299   1.000000   0.000000
   21        1.880201      5.685342   1.000000   0.000000
   22        2.292830      5.727538   1.000000   0.000000
   23        2.500251      5.787042   1.043416   0.000000
   24        4.102019      7.585220  -0.047911   0.000000
   25       11.237563     11.349990   0.000000   0.000000
   26       11.877867     11.931219   0.000000   0.000000
   27       12.246197     12.261106   0.000000   0.000000
   28       12.681828     12.716086   0.000000   0.000000
 
  0.4166667E+00  0.4166667E+00  0.8333333E-01  0.1111111E+00
    1      -53.774400    -49.615382   1.000000   1.000000
    2      -53.774279    -49.615295   1.000000   1.000000
    3      -53.772255    -49.612176   1.000000   1.000000
    4      -29.027648    -29.021115   1.000000   1.000000
    5      -14.487312    -14.310317   1.000000   1.000000
    6      -14.071049    -13.941781   1.000000   1.000000
    7      -13.879802    -13.634372   1.000000   1.000000
    8      -11.080607    -11.066774   1.000000   1.000000
    9      -10.888484    -10.854676   1.000000   1.000000
   10      -10.838381    -10.813111   1.000000   1.000000
   11       -4.880033     -2.563622   1.000000   1.000000
   12       -4.417812     -1.389369   1.000000   1.000000
   13       -4.345029     -1.311316   1.000000   1.000000
   14       -3.942987     -0.380411   1.000000   1.000000
   15       -3.935730      0.258742   1.000000   1.000000
   16       -0.918185      0.459405   1.000000   1.000000
   17        0.561405      1.700333   1.000000   1.000000
   18        1.234384      1.798417   1.000000   1.000000
   19        1.371757      3.066711   1.000000   1.000000
   20        1.379961      5.685560   1.000000   0.000000
   21        1.774149      5.722935   1.000000   0.000000
   22        2.022876      5.887036   1.000000   0.000000
   23        2.870707      5.932129   0.998997   0.000000
   24        4.909022      8.386625   0.000000   0.000000
   25       11.604842     11.656007   0.000000   0.000000
   26       11.885498     11.965056   0.000000   0.000000
   27       12.811030     12.925959   0.000000   0.000000
   28       12.900348     12.990273   0.000000   0.000000
 
  0.2500000E+00  0.2500000E+00  0.2500000E+00  0.3703704E-01
    1      -53.773439    -49.613885   1.000000   1.000000
    2      -53.773439    -49.613885   1.000000   1.000000
    3      -53.773316    -49.613842   1.000000   1.000000
    4      -29.042050    -29.035434   1.000000   1.000000
    5      -14.778915    -14.650751   1.000000   1.000000
    6      -13.834913    -13.568996   1.000000   1.000000
    7      -13.834913    -13.568996   1.000000   1.000000
    8      -11.155585    -11.112906   1.000000   1.000000
    9      -11.155585    -11.112906   1.000000   1.000000
   10      -10.757932    -10.738293   1.000000   1.000000
   11       -4.043749     -2.122539   1.000000   1.000000
   12       -3.932139     -1.037723   1.000000   1.000000
   13       -3.932139     -1.037723   1.000000   1.000000
   14       -3.884467     -0.107468   1.000000   1.000000
   15       -3.884467      0.198009   1.000000   1.000000
   16       -2.132942      0.198009   1.000000   1.000000
   17        0.879499      2.239673   1.000000   1.000000
   18        1.256161      2.239673   1.000000   1.000000
   19        1.256160      2.615078   1.000000   1.000000
   20        1.579186      5.391546   1.000000   0.000000
   21        1.579186      5.474306   1.000000   0.000000
   22        2.423966      5.474312   1.000000   0.000000
   23        3.554369      6.868963   0.531713   0.000000
   24        3.554370      6.868971   0.026551   0.000000
   25       11.027046     11.151440   0.000000   0.000000
   26       11.029590     11.153363   0.000000   0.000000
   27       11.563791     11.614373   0.000000   0.000000
   28       12.656185     12.761660   0.000000   0.000000
 
  0.4166667E+00  0.2500000E+00  0.2500000E+00  0.1111111E+00
    1      -53.774439    -49.615402   1.000000   1.000000
    2      -53.773437    -49.613860   1.000000   1.000000
    3      -53.773210    -49.613688   1.000000   1.000000
    4      -29.028352    -29.021860   1.000000   1.000000
    5      -14.607110    -14.458866   1.000000   1.000000
    6      -13.908446    -13.764362   1.000000   1.000000
    7      -13.722052    -13.439682   1.000000   1.000000
    8      -11.305388    -11.275840   1.000000   1.000000
    9      -11.032836    -10.993445   1.000000   1.000000
   10      -10.851124    -10.827753   1.000000   1.000000
   11       -4.723091     -2.438608   1.000000   1.000000
   12       -4.193126     -1.178930   1.000000   1.000000
   13       -4.013830     -1.001636   1.000000   1.000000
   14       -3.925624     -0.690074   1.000000   1.000000
   15       -3.923261     -0.153484   1.000000   1.000000
   16       -2.308664      0.244902   1.000000   1.000000
   17        0.782614      2.219313   1.000000   1.000000
   18        1.199311      2.376837   1.000000   1.000000
   19        1.300647      2.709067   1.000000   1.000000
   20        1.650191      5.504329   1.000000   0.000000
   21        2.210612      5.797121   1.000000   0.000000
   22        2.619035      5.833291   1.000000   0.000000
   23        3.441262      6.833190   0.449859   0.000000
   24        4.250475      7.754211  -0.013882   0.000000
   25       11.541386     11.640178   0.000000   0.000000
   26       11.620907     11.717349   0.000000   0.000000
   27       11.797957     11.901774   0.000000   0.000000
   28       12.352812     12.416896   0.000000   0.000000
 
  0.4166667E+00  0.4166667E+00  0.2500000E+00  0.1111111E+00
    1      -53.774380    -49.615301   1.000000   1.000000
    2      -53.774283    -49.615237   1.000000   1.000000
    3      -53.773203    -49.613647   1.000000   1.000000
    4      -29.015580    -29.009202   1.000000   1.000000
    5      -14.245350    -14.099867   1.000000   1.000000
    6      -13.911214    -13.775593   1.000000   1.000000
    7      -13.771608    -13.564341   1.000000   1.000000
    8      -11.332226    -11.303803   1.000000   1.000000
    9      -11.161844    -11.125004   1.000000   1.000000
   10      -11.024711    -10.997308   1.000000   1.000000
   11       -4.878306     -2.797795   1.000000   1.000000
   12       -4.496262     -1.379054   1.000000   1.000000
   13       -4.284087     -0.996605   1.000000   1.000000
   14       -4.046357     -0.907918   1.000000   1.000000
   15       -4.040938     -0.153164   1.000000   1.000000
   16       -2.651224     -0.151746   1.000000   1.000000
   17        0.889551      2.464888   1.000000   1.000000
   18        1.300613      2.527155   1.000000   1.000000
   19        1.327209      3.106633   1.000000   1.000000
   20        2.246200      5.865293   1.000000   0.000000
   21        2.354806      5.886885   1.000000   0.000000
   22        2.915285      6.009886   1.000000   0.000000
   23        3.654678      7.210581   0.102349   0.000000
   24        4.902180      8.379206   0.000000   0.000000
   25       11.261374     11.330329   0.000000   0.000000
   26       11.622345     11.726202   0.000000   0.000000
   27       11.679065     11.793018   0.000000   0.000000
   28       12.495456     12.562270   0.000000   0.000000
 
  0.4166667E+00  0.4166667E+00  0.4166667E+00  0.3703704E-01
    1      -53.774353    -49.615244   1.000000   1.000000
    2      -53.774304    -49.615183   1.000000   1.000000
    3      -53.774304    -49.615183   1.000000   1.000000
    4      -29.003466    -28.997252   1.000000   1.000000
    5      -13.921636    -13.798082   1.000000   1.000000
    6      -13.717550    -13.571880   1.000000   1.000000
    7      -13.717550    -13.571880   1.000000   1.000000
    8      -11.465760    -11.430143   1.000000   1.000000
    9      -11.465760    -11.430143   1.000000   1.000000
   10      -11.317446    -11.283714   1.000000   1.000000
   11       -4.876426     -3.184571   1.000000   1.000000
   12       -4.876426     -1.368294   1.000000   1.000000
   13       -4.189185     -1.368294   1.000000   1.000000
   14       -4.130482     -0.571229   1.000000   1.000000
   15       -4.130482     -0.400863   1.000000   1.000000
   16       -3.430838     -0.400863   1.000000   1.000000
   17        1.223714      3.052583   1.000000   1.000000
   18        1.355179      3.052583   1.000000   1.000000
   19        1.355179      3.186943   1.000000   1.000000
   20        2.849375      6.087901   1.000000   0.000000
   21        2.849375      6.103150   1.000000   0.000000
   22        2.989672      6.103151   1.000000   0.000000
   23        4.886225      8.363835   0.000000   0.000000
   24        4.886225      8.363838   0.000000   0.000000
   25       10.801181     10.893220   0.000000   0.000000
   26       10.882062     10.966433   0.000000   0.000000
   27       10.882082     10.966444   0.000000   0.000000
   28       13.315668     13.351405   0.000000   0.000000
