       N       E                     dE             d eps       ncg     rms          rms(c)
DAV:   1     0.329355861616E+03    0.32936E+03   -0.16840E+04  1176   0.120E+03
DAV:   2    -0.184105305183E+02   -0.34777E+03   -0.33694E+03  1132   0.402E+02
DAV:   3    -0.371167531265E+02   -0.18706E+02   -0.18514E+02  1524   0.996E+01
DAV:   4    -0.376544178651E+02   -0.53766E+00   -0.53553E+00  1752   0.125E+01
DAV:   5    -0.376608879633E+02   -0.64701E-02   -0.64612E-02  1476   0.120E+00    0.262E+01
RMM:   6    -0.417815036784E+02   -0.41206E+01   -0.11905E+02  1234   0.863E+01    0.384E+01
RMM:   7    -0.317948575523E+02    0.99866E+01   -0.29886E+01  1167   0.391E+01    0.150E+01
RMM:   8    -0.315223366713E+02    0.27252E+00   -0.59671E-01  1228   0.588E+00    0.120E+01
RMM:   9    -0.315613030163E+02   -0.38966E-01   -0.18338E+00  1148   0.954E+00    0.392E+00
RMM:  10    -0.313255432779E+02    0.23576E+00   -0.25166E-01  1181   0.353E+00    0.187E+00
RMM:  11    -0.312665300664E+02    0.59013E-01   -0.19620E-01  1151   0.329E+00    0.604E-01
RMM:  12    -0.312840885728E+02   -0.17559E-01   -0.17649E-02  1061   0.104E+00    0.850E-01
RMM:  13    -0.312801971933E+02    0.38914E-02   -0.86075E-03   919   0.700E-01    0.286E-01
RMM:  14    -0.312794577785E+02    0.73941E-03   -0.31508E-03   789   0.408E-01
   1 F= -.31279458E+02 E0= -.31279458E+02  d E =-.312795E+02  mag=     3.9851
