 vasp.5.4.1 24Jun15 (build Jan 06 2016 13:10:00) complex                        
  
 executed on           IFC91_ompi date 2016.02.25  14:42:57
 running on    8 total cores
 distrk:  each k-point on    8 cores,    1 groups
 distr:  one band on NCORES_PER_BAND=   4 cores,    2 groups


--------------------------------------------------------------------------------------------------------


 INCAR:
 POTCAR:    PAW Sr                                
 POTCAR:    PAW Fe                                
 POTCAR:    PAW O_s                               
 POTCAR:    PAW Sr                                
   VRHFIN =Sr: 4s4p5s                                                           
   LEXCH  = 91                                                                  
   EATOM  =   843.6740 eV,   62.0083 Ry                                         
                                                                                
   TITEL  = PAW Sr                                                              
   LULTRA =        F    use ultrasoft PP ?                                      
   IUNSCR =        1    unscreen: 0-lin 1-nonlin 2-no                           
   RPACOR =    2.200    partial core radius                                     
   POMASS =   87.620; ZVAL   =   10.000    mass and valenz                      
   RCORE  =    2.500    outmost cutoff radius                                   
   RWIGS  =    4.040; RWIGS  =    2.138    wigner-seitz radius (au A)           
   ENMAX  =  226.196; ENMIN  =  169.647 eV                                      
   RCLOC  =    2.201    cutoff for local pot                                    
   LCOR   =        T    correct aug charges                                     
   LPAW   =        T    paw PP                                                  
   EAUG   =  366.804                                                            
   DEXC   =     .000                                                            
   RMAX   =    3.066    core radius for proj-oper                               
   RDEP   =    2.562    core radius for depl-charge                             
   QCUT   =   -4.077; QGAM   =    8.155    optimization parameters              
                                                                                
   Description                                                                  
     l     E      TYP  RCUT    TYP  RCUT                                        
     0   .000     23  2.500                                                     
     0   .000     23  2.500                                                     
     1   .000     23  2.500                                                     
     1   .000     23  2.500                                                     
     2   .000     23  2.500                                                     
     2   .000     23  2.500                                                     
  local pseudopotential read in
  partial core-charges read in
  atomic valenz-charges read in
  non local Contribution for L=           0  read in
    real space projection operators read in
  non local Contribution for L=           0  read in
    real space projection operators read in
  non local Contribution for L=           1  read in
    real space projection operators read in
  non local Contribution for L=           1  read in
    real space projection operators read in
  non local Contribution for L=           2  read in
    real space projection operators read in
  non local Contribution for L=           2  read in
    real space projection operators read in
    PAW grid and wavefunctions read in
 
   number of l-projection  operators is LMAX  =           6
   number of lm-projection operators is LMMAX =          18
 
 POTCAR:    PAW Fe                                
   VRHFIN =Fe:  3pd7s1                                                          
   LEXCH  = 91                                                                  
   EATOM  =  2459.3729 eV,  180.7588 Ry                                         
                                                                                
   TITEL  = PAW Fe                                                              
   LULTRA =        F    use ultrasoft PP ?                                      
   IUNSCR =        1    unscreen: 0-lin 1-nonlin 2-no                           
   RPACOR =    1.750    partial core radius                                     
   POMASS =   55.847; ZVAL   =   14.000    mass and valenz                      
   RCORE  =    2.200    outmost cutoff radius                                   
   RWIGS  =    2.200; RWIGS  =    1.164    wigner-seitz radius (au A)           
   ENMAX  =  293.258; ENMIN  =  219.944 eV                                      
   RCLOC  =    1.701    cutoff for local pot                                    
   LCOR   =        T    correct aug charges                                     
   LPAW   =        T    paw PP                                                  
   EAUG   =  578.342                                                            
   DEXC   =     .000                                                            
   RMAX   =    2.692    core radius for proj-oper                               
   RAUG   =    1.300    factor for augmentation sphere                          
   RDEP   =    2.296    core radius for depl-charge                             
   QCUT   =   -4.643; QGAM   =    9.285    optimization parameters              
                                                                                
   Description                                                                  
     l     E      TYP  RCUT    TYP  RCUT                                        
     1   .000     23  2.000                                                     
     1  -.400     23  2.000                                                     
     2   .000     23  2.200                                                     
     2   .000     23  2.200                                                     
     0   .000     23  2.000                                                     
     0  2.000     23  2.000                                                     
     3   .000      7   .000                                                     
  local pseudopotential read in
  partial core-charges read in
  atomic valenz-charges read in
  non local Contribution for L=           1  read in
    real space projection operators read in
  non local Contribution for L=           1  read in
    real space projection operators read in
  non local Contribution for L=           2  read in
    real space projection operators read in
  non local Contribution for L=           2  read in
    real space projection operators read in
  non local Contribution for L=           0  read in
    real space projection operators read in
  non local Contribution for L=           0  read in
    real space projection operators read in
    PAW grid and wavefunctions read in
 
   number of l-projection  operators is LMAX  =           6
   number of lm-projection operators is LMMAX =          18
 
 POTCAR:    PAW O_s                               
   VRHFIN =O: s2p4                                                              
   LEXCH  = 91                                                                  
   EATOM  =   433.0277 eV,   31.8266 Ry                                         
                                                                                
   TITEL  = PAW O_s                                                             
   LULTRA =        F    use ultrasoft PP ?                                      
   IUNSCR =        0    unscreen: 0-lin 1-nonlin 2-no                           
   RPACOR =     .000    partial core radius                                     
   POMASS =   16.000; ZVAL   =    6.000    mass and valenz                      
   RCORE  =    1.900    outmost cutoff radius                                   
   RWIGS  =    1.700; RWIGS  =     .900    wigner-seitz radius (au A)           
   ENMAX  =  250.000; ENMIN  =  202.667 eV                                      
   RCLOC  =    1.014    cutoff for local pot                                    
   LCOR   =        T    correct aug charges                                     
   LPAW   =        T    paw PP                                                  
   EAUG   =  412.352                                                            
   DEXC   =     .000                                                            
   RMAX   =    2.805    core radius for proj-oper                               
   RDEP   =    2.002    core radius for depl-charge                             
   QCUT   =   -4.457; QGAM   =    8.913    optimization parameters              
                                                                                
   Description                                                                  
     l     E      TYP  RCUT    TYP  RCUT                                        
     0   .000     23  1.500                                                     
     0   .000     23  1.500                                                     
     1   .000     23  1.900                                                     
     1   .000     23  1.900                                                     
     2   .000      7   .000                                                     
  local pseudopotential read in
  atomic valenz-charges read in
  non local Contribution for L=           0  read in
    real space projection operators read in
  non local Contribution for L=           0  read in
    real space projection operators read in
  non local Contribution for L=           1  read in
    real space projection operators read in
  non local Contribution for L=           1  read in
    real space projection operators read in
    PAW grid and wavefunctions read in
 
   number of l-projection  operators is LMAX  =           4
   number of lm-projection operators is LMMAX =           8
 

 ----------------------------------------------------------------------------- 
|                                                                             |
|  ADVICE TO THIS USER RUNNING 'VASP/VAMP'   (HEAR YOUR MASTER'S VOICE ...):  |
|                                                                             |
|      You have a (more or less) 'small supercell' and for smaller cells      |
|      it is recommended  to use the reciprocal-space projection scheme!      |
|      The real space optimization is not  efficient for small cells and it   |
|      is also less accurate ...                                              |
|      Therefore set LREAL=.FALSE. in the  INCAR file                         |
|                                                                             |
 ----------------------------------------------------------------------------- 

 Optimization of the real space projectors (new method)

 maximal supplied QI-value         = 15.12
 optimisation between [QCUT,QGAM] = [  8.77, 17.69] = [ 21.53, 87.61] Ry 
 Optimized for a Real-space Cutoff    1.69 Angstroem

   l    n(q)    QCUT    max X(q) W(low)/X(q) W(high)/X(q)  e(spline) 
   0      9     8.768     6.754    0.18E-04    0.21E-05    0.67E-08
   0      9     8.768    11.260    0.63E-04    0.78E-05    0.39E-07
   1      8     8.768     3.800    0.94E-05    0.21E-04    0.25E-07
   1      8     8.768    42.936    0.24E-03    0.36E-03    0.23E-06
   2      8     8.768     4.943    0.61E-04    0.13E-04    0.38E-07
   2      8     8.768    88.807    0.23E-03    0.32E-03    0.20E-06
 Optimization of the real space projectors (new method)

 maximal supplied QI-value         = 17.01
 optimisation between [QCUT,QGAM] = [  8.84, 17.69] = [ 21.90, 87.61] Ry 
 Optimized for a Real-space Cutoff    1.55 Angstroem

   l    n(q)    QCUT    max X(q) W(low)/X(q) W(high)/X(q)  e(spline) 
   1      8     8.844     4.548    0.31E-04    0.33E-04    0.33E-07
   1      8     8.844     5.232    0.39E-03    0.50E-04    0.28E-06
   2      7     8.844     3.957    0.38E-04    0.11E-03    0.44E-07
   2      7     8.844    29.816    0.43E-03    0.99E-03    0.21E-06
   0      8     8.844    23.438    0.18E-04    0.19E-04    0.85E-08
   0      8     8.844    39.418    0.66E-04    0.15E-03    0.47E-07
 Optimization of the real space projectors (new method)

 maximal supplied QI-value         = 19.84
 optimisation between [QCUT,QGAM] = [  8.73, 17.66] = [ 21.34, 87.33] Ry 
 Optimized for a Real-space Cutoff    1.46 Angstroem

   l    n(q)    QCUT    max X(q) W(low)/X(q) W(high)/X(q)  e(spline) 
   0      8     8.731     3.485    0.23E-04    0.53E-05    0.51E-07
   0      8     8.731    30.133    0.28E-03    0.36E-03    0.17E-06
   1      7     8.731     3.755    0.11E-03    0.11E-03    0.69E-07
   1      7     8.731    24.805    0.50E-03    0.59E-03    0.12E-06
  PAW Sr                                :
 energy of atom  1       EATOM= -843.6740
 kinetic energy error for atom=    0.0094 (will be added to EATOM!!)
  PAW Fe                                :
 energy of atom  2       EATOM=-2459.3729
 kinetic energy error for atom=    0.0682 (will be added to EATOM!!)
  PAW O_s                               :
 energy of atom  3       EATOM= -433.0277
 kinetic energy error for atom=    0.0347 (will be added to EATOM!!)
 
 
 POSCAR: Sr1 Fe1 O3                              
  positions in direct lattice
  velocities in cartesian coordinates
 exchange correlation table for  LEXCH =        7
   RHO(1)=    0.500       N(1)  =     2000
   RHO(2)=  100.500       N(2)  =     4000

 VTST: version 3.1, (03/28/14)

 CHAIN: initializing optimizer
 
 OPT: Using VASP QUASI-newton optimizer
 CHAIN: Read ICHAIN            0
 
 POSCAR: Sr1 Fe1 O3                              
  positions in direct lattice
  velocities in cartesian coordinates
 


--------------------------------------------------------------------------------------------------------


 ion  position               nearest neighbor table
   1  0.500  0.500  0.500-   3 2.69   4 2.69   5 2.69   3 2.69   4 2.69   3 2.69   5 2.69   3 2.69
                             4 2.69   5 2.69   4 2.69   5 2.69   2 3.29   2 3.29   2 3.29   2 3.29
   2  0.000  0.000  0.000-   3 1.90   4 1.90   5 1.90   5 1.90   4 1.90   3 1.90   1 3.29   1 3.29
                             1 3.29   1 3.29   1 3.29   1 3.29   1 3.29   1 3.29
   3  0.500  0.000  0.000-   2 1.90   2 1.90   1 2.69   1 2.69   1 2.69   1 2.69
   4  0.000  0.500  0.000-   2 1.90   2 1.90   1 2.69   1 2.69   1 2.69   1 2.69
   5  0.000  0.000  0.500-   2 1.90   2 1.90   1 2.69   1 2.69   1 2.69   1 2.69
 
  LATTYP: Found a simple cubic cell.
 ALAT       =     3.8000000000
  
  Lattice vectors:
  
 A1 = (   3.8000000000,   0.0000000000,   0.0000000000)
 A2 = (   0.0000000000,   3.8000000000,   0.0000000000)
 A3 = (   0.0000000000,   0.0000000000,   3.8000000000)


Analysis of symmetry for initial positions (statically):
=====================================================================
 Subroutine PRICEL returns:
 Original cell was already a primitive cell.
 

 Routine SETGRP: Setting up the symmetry group for a 
 simple cubic supercell.


 Subroutine GETGRP returns: Found 48 space group operations
 (whereof 48 operations were pure point group operations)
 out of a pool of 48 trial point group operations.


The static configuration has the point symmetry O_h .


Analysis of symmetry for dynamics (positions and initial velocities):
=====================================================================
 Subroutine PRICEL returns:
 Original cell was already a primitive cell.
 

 Routine SETGRP: Setting up the symmetry group for a 
 simple cubic supercell.


 Subroutine GETGRP returns: Found 48 space group operations
 (whereof 48 operations were pure point group operations)
 out of a pool of 48 trial point group operations.


The dynamic configuration has the point symmetry O_h .


Analysis of structural, dynamic, and magnetic symmetry:
=====================================================================
 Subroutine PRICEL returns:
 Original cell was already a primitive cell.
 

 Routine SETGRP: Setting up the symmetry group for a 
 simple cubic supercell.


 Subroutine GETGRP returns: Found 48 space group operations
 (whereof 48 operations were pure point group operations)
 out of a pool of 48 trial point group operations.


The magnetic configuration has the point symmetry O_h .


 Subroutine INISYM returns: Found 48 space group operations
 (whereof 48 operations are pure point group operations),
 and found     1 'primitive' translations

 
 
 KPOINTS: Automatic Mesh                          

Automatic generation of k-mesh.
Space group operators:
 irot       det(A)        alpha          n_x          n_y          n_z        tau_x        tau_y        tau_z
    1     1.000000     0.000001     1.000000     0.000000     0.000000     0.000000     0.000000     0.000000
    2    -1.000000     0.000001     1.000000     0.000000     0.000000     0.000000     0.000000     0.000000
    3     1.000000   120.000000    -0.577350    -0.577350    -0.577350     0.000000     0.000000     0.000000
    4    -1.000000   120.000000    -0.577350    -0.577350    -0.577350     0.000000     0.000000     0.000000
    5     1.000000   120.000000     0.577350     0.577350     0.577350     0.000000     0.000000     0.000000
    6    -1.000000   120.000000     0.577350     0.577350     0.577350     0.000000     0.000000     0.000000
    7     1.000000    90.000000     0.000000     0.000000    -1.000000     0.000000     0.000000     0.000000
    8    -1.000000    90.000000     0.000000     0.000000    -1.000000     0.000000     0.000000     0.000000
    9     1.000000   180.000000     0.000000     0.707107     0.707107     0.000000     0.000000     0.000000
   10    -1.000000   180.000000     0.000000     0.707107     0.707107     0.000000     0.000000     0.000000
   11     1.000000    90.000000     0.000000     1.000000     0.000000     0.000000     0.000000     0.000000
   12    -1.000000    90.000000     0.000000     1.000000     0.000000     0.000000     0.000000     0.000000
   13     1.000000   180.000000     0.000000     0.000000     1.000000     0.000000     0.000000     0.000000
   14    -1.000000   180.000000     0.000000     0.000000     1.000000     0.000000     0.000000     0.000000
   15     1.000000   120.000000    -0.577350     0.577350     0.577350     0.000000     0.000000     0.000000
   16    -1.000000   120.000000    -0.577350     0.577350     0.577350     0.000000     0.000000     0.000000
   17     1.000000   120.000000    -0.577350     0.577350    -0.577350     0.000000     0.000000     0.000000
   18    -1.000000   120.000000    -0.577350     0.577350    -0.577350     0.000000     0.000000     0.000000
   19     1.000000    90.000000     0.000000     0.000000     1.000000     0.000000     0.000000     0.000000
   20    -1.000000    90.000000     0.000000     0.000000     1.000000     0.000000     0.000000     0.000000
   21     1.000000    90.000000    -1.000000     0.000000     0.000000     0.000000     0.000000     0.000000
   22    -1.000000    90.000000    -1.000000     0.000000     0.000000     0.000000     0.000000     0.000000
   23     1.000000   180.000000     0.707107     0.000000     0.707107     0.000000     0.000000     0.000000
   24    -1.000000   180.000000     0.707107     0.000000     0.707107     0.000000     0.000000     0.000000
   25     1.000000   120.000000     0.577350    -0.577350     0.577350     0.000000     0.000000     0.000000
   26    -1.000000   120.000000     0.577350    -0.577350     0.577350     0.000000     0.000000     0.000000
   27     1.000000   120.000000    -0.577350    -0.577350     0.577350     0.000000     0.000000     0.000000
   28    -1.000000   120.000000    -0.577350    -0.577350     0.577350     0.000000     0.000000     0.000000
   29     1.000000   180.000000     1.000000     0.000000     0.000000     0.000000     0.000000     0.000000
   30    -1.000000   180.000000     1.000000     0.000000     0.000000     0.000000     0.000000     0.000000
   31     1.000000    90.000000     0.000000    -1.000000     0.000000     0.000000     0.000000     0.000000
   32    -1.000000    90.000000     0.000000    -1.000000     0.000000     0.000000     0.000000     0.000000
   33     1.000000   180.000000     0.707107     0.707107     0.000000     0.000000     0.000000     0.000000
   34    -1.000000   180.000000     0.707107     0.707107     0.000000     0.000000     0.000000     0.000000
   35     1.000000    90.000000     1.000000     0.000000     0.000000     0.000000     0.000000     0.000000
   36    -1.000000    90.000000     1.000000     0.000000     0.000000     0.000000     0.000000     0.000000
   37     1.000000   120.000000     0.577350    -0.577350    -0.577350     0.000000     0.000000     0.000000
   38    -1.000000   120.000000     0.577350    -0.577350    -0.577350     0.000000     0.000000     0.000000
   39     1.000000   180.000000     0.000000     1.000000     0.000000     0.000000     0.000000     0.000000
   40    -1.000000   180.000000     0.000000     1.000000     0.000000     0.000000     0.000000     0.000000
   41     1.000000   120.000000     0.577350     0.577350    -0.577350     0.000000     0.000000     0.000000
   42    -1.000000   120.000000     0.577350     0.577350    -0.577350     0.000000     0.000000     0.000000
   43     1.000000   180.000000     0.000000    -0.707107     0.707107     0.000000     0.000000     0.000000
   44    -1.000000   180.000000     0.000000    -0.707107     0.707107     0.000000     0.000000     0.000000
   45     1.000000   180.000000     0.707107    -0.707107     0.000000     0.000000     0.000000     0.000000
   46    -1.000000   180.000000     0.707107    -0.707107     0.000000     0.000000     0.000000     0.000000
   47     1.000000   180.000000     0.707107     0.000000    -0.707107     0.000000     0.000000     0.000000
   48    -1.000000   180.000000     0.707107     0.000000    -0.707107     0.000000     0.000000     0.000000
 
 Subroutine IBZKPT returns following result:
 ===========================================
 
 Found     10 irreducible k-points:
 
 Following reciprocal coordinates:
            Coordinates               Weight
  0.083333  0.083333  0.083333      8.000000
  0.250000  0.083333  0.083333     24.000000
  0.416667  0.083333  0.083333     24.000000
  0.250000  0.250000  0.083333     24.000000
  0.416667  0.250000  0.083333     48.000000
  0.416667  0.416667  0.083333     24.000000
  0.250000  0.250000  0.250000      8.000000
  0.416667  0.250000  0.250000     24.000000
  0.416667  0.416667  0.250000     24.000000
  0.416667  0.416667  0.416667      8.000000
 
 Following cartesian coordinates:
            Coordinates               Weight
  0.021930  0.021930  0.021930      8.000000
  0.065789  0.021930  0.021930     24.000000
  0.109649  0.021930  0.021930     24.000000
  0.065789  0.065789  0.021930     24.000000
  0.109649  0.065789  0.021930     48.000000
  0.109649  0.109649  0.021930     24.000000
  0.065789  0.065789  0.065789      8.000000
  0.109649  0.065789  0.065789     24.000000
  0.109649  0.109649  0.065789     24.000000
  0.109649  0.109649  0.109649      8.000000
 
 TETIRR: Found     88 inequivalent tetrahedra from     1296


--------------------------------------------------------------------------------------------------------




 Dimension of arrays:
   k-points           NKPTS =     10   k-points in BZ     NKDIM =     10   number of bands    NBANDS=     28
   number of dos      NEDOS =    301   number of ions     NIONS =      5
   non local maximal  LDIM  =      6   non local SUM 2l+1 LMDIM =     18
   total plane-waves  NPLWV =   4096
   max r-space proj   IRMAX =   1562   max aug-charges    IRDMAX=   4576
   dimension x,y,z NGX =    16 NGY =   16 NGZ =   16
   dimension x,y,z NGXF=    32 NGYF=   32 NGZF=   32
   support grid    NGXF=    32 NGYF=   32 NGZF=   32
   ions per type =               1   1   3
 NGX,Y,Z   is equivalent  to a cutoff of   7.00,  7.00,  7.00 a.u.
 NGXF,Y,Z  is equivalent  to a cutoff of  14.00, 14.00, 14.00 a.u.


 I would recommend the setting:
   dimension x,y,z NGX =    16 NGY =   16 NGZ =   16
 SYSTEM =  unknown system                          
 POSCAR =  Sr1 Fe1 O3                              

 Startparameter for this run:
   NWRITE =      2    write-flag & timer
   PREC   = normal    normal or accurate (medium, high low for compatibility)
   ISTART =      0    job   : 0-new  1-cont  2-samecut
   ICHARG =      2    charge: 1-file 2-atom 10-const
   ISPIN  =      2    spin polarized calculation?
   LNONCOLLINEAR =      F non collinear calculations
   LSORBIT =      F    spin-orbit coupling
   INIWAV =      1    electr: 0-lowe 1-rand  2-diag
   LASPH  =      F    aspherical Exc in radial PAW
   METAGGA=      F    non-selfconsistent MetaGGA calc.

 Electronic Relaxation 1
   ENCUT  =  300.0 eV  22.05 Ry    4.70 a.u.   5.37  5.37  5.37*2*pi/ulx,y,z
   ENINI  =  300.0     initial cutoff
   ENAUG  =  578.3 eV  augmentation charge cutoff
   NELM   =    100;   NELMIN=  2; NELMDL= -5     # of ELM steps 
   EDIFF  = 0.1E-02   stopping-criterion for ELM
   LREAL  =      T    real-space projection
   NLSPLINE    = F    spline interpolate recip. space projectors
   LCOMPAT=      F    compatible to vasp.4.4
   GGA_COMPAT  = T    GGA compatible to vasp.4.4-vasp.4.6
   LMAXPAW     = -100 max onsite density
   LMAXMIX     =    4 max onsite mixed and CHGCAR
   VOSKOWN=      0    Vosko Wilk Nusair interpolation
   ROPT   =   -0.00050  -0.00050  -0.00050
 Ionic relaxation
   EDIFFG = -.1E-01   stopping-criterion for IOM
   NSW    =     99    number of steps for IOM
   NBLOCK =      1;   KBLOCK =     99    inner block; outer block 
   IBRION =      1    ionic relax: 0-MD 1-quasi-New 2-CG
   NFREE  =      0    steps in history (QN), initial steepest desc. (CG)
   ISIF   =      0    stress and relaxation
   IWAVPR =     11    prediction:  0-non 1-charg 2-wave 3-comb
   ISYM   =      2    0-nonsym 1-usesym 2-fastsym
   LCORR  =      T    Harris-Foulkes like correction to forces

   POTIM  = 0.5000    time-step for ionic-motion
   TEIN   =    0.0    initial temperature
   TEBEG  =    0.0;   TEEND  =   0.0 temperature during run
   SMASS  =  -3.00    Nose mass-parameter (am)
   estimated Nose-frequenzy (Omega)   =  0.10E-29 period in steps =****** mass=  -0.330E-27a.u.
   SCALEE = 1.0000    scale energy and forces
   NPACO  =    256;   APACO  = 16.0  distance and # of slots for P.C.
   PSTRESS=    0.0 pullay stress

  Mass of Ions in am
   POMASS =  87.62 55.85 16.00
  Ionic Valenz
   ZVAL   =  10.00 14.00  6.00
  Atomic Wigner-Seitz radii
   RWIGS  =  -1.00 -1.00 -1.00
  virtual crystal weights 
   VCA    =   1.00  1.00  1.00
   NELECT =      42.0000    total number of electrons
   NUPDOWN=      -1.0000    fix difference up-down

 DOS related values:
   EMIN   =  10.00;   EMAX   =-10.00  energy-range for DOS
   EFERMI =   0.00
   ISMEAR =    -5;   SIGMA  =   0.05  broadening in eV -4-tet -1-fermi 0-gaus

 Electronic relaxation 2 (details)
   IALGO  =     68    algorithm
   LDIAG  =      T    sub-space diagonalisation (order eigenvalues)
   LSUBROT=      F    optimize rotation matrix (better conditioning)
   TURBO    =      0    0=normal 1=particle mesh
   IRESTART =      0    0=no restart 2=restart with 2 vectors
   NREBOOT  =      0    no. of reboots
   NMIN     =      0    reboot dimension
   EREF     =   0.00    reference energy to select bands
   IMIX   =      4    mixing-type and parameters
     AMIX     =   0.40;   BMIX     =  1.00
     AMIX_MAG =   1.60;   BMIX_MAG =  1.00
     AMIN     =   0.10
     WC   =   100.;   INIMIX=   1;  MIXPRE=   1;  MAXMIX= -45

 Intra band minimization:
   WEIMIN = 0.0010     energy-eigenvalue tresh-hold
   EBREAK =  0.89E-05  absolut break condition
   DEPER  =   0.30     relativ break condition  

   TIME   =   0.40     timestep for ELM

  volume/ion in A,a.u.               =      10.97        74.06
  Fermi-wavevector in a.u.,A,eV,Ry     =   1.497526  2.829914 30.512204  2.242584
  Thomas-Fermi vector in A             =   2.609402
 
 Write flags
   LWAVE  =      F    write WAVECAR
   LCHARG =      T    write CHGCAR
   LVTOT  =      F    write LOCPOT, total local potential
   LVHAR  =      F    write LOCPOT, Hartree potential only
   LELF   =      F    write electronic localiz. function (ELF)
   LORBIT =      0    0 simple, 1 ext, 2 COOP (PROOUT)


 Dipole corrections
   LMONO  =      F    monopole corrections only (constant potential shift)
   LDIPOL =      F    correct potential (dipole corrections)
   IDIPOL =      0    1-x, 2-y, 3-z, 4-all directions 
   EPSILON=  1.0000000 bulk dielectric constant

 LDA+U is selected, type is set to LDAUTYPE =  2
   angular momentum for each species LDAUL =     0    2    0
   U (eV)           for each species LDAUU =   0.0  5.3  0.0
   J (eV)           for each species LDAUJ =   0.0  0.0  0.0
 Exchange correlation treatment:
   GGA     =    --    GGA type
   LEXCH   =     7    internal setting for exchange type
   VOSKOWN=      0    Vosko Wilk Nusair interpolation
   LHFCALC =     F    Hartree Fock is set to
   LHFONE  =     F    Hartree Fock one center treatment
   AEXX    =    0.0000 exact exchange contribution

 Linear response parameters
   LEPSILON=     F    determine dielectric tensor
   LRPA    =     F    only Hartree local field effects (RPA)
   LNABLA  =     F    use nabla operator in PAW spheres
   LVEL    =     F    velocity operator in full k-point grid
   LINTERFAST=   F  fast interpolation
   KINTER  =     0    interpolate to denser k-point grid
   CSHIFT  =0.1000    complex shift for real part using Kramers Kronig
   OMEGAMAX=  -1.0    maximum frequency
   DEG_THRESHOLD= 0.2000000E-02 threshold for treating states as degnerate
   RTIME   =    0.100 relaxation time in fs

 Orbital magnetization related:
   ORBITALMAG=     F  switch on orbital magnetization
   LCHIMAG   =     F  perturbation theory with respect to B field
   DQ        =  0.001000  dq finite difference perturbation B field



--------------------------------------------------------------------------------------------------------


 quasi-Newton-method for relaxation of ions
 charge density and potential will be updated during run
 spin polarized calculation
 RMM-DIIS sequential band-by-band and
  variant of blocked Davidson during initial phase
 perform sub-space diagonalisation
    before iterative eigenvector-optimisation
 modified Broyden-mixing scheme, WC =      100.0
 initial mixing is a Kerker type mixing with AMIX =  0.4000 and BMIX =      1.0000
 Hartree-type preconditioning will be used
 using additional bands            7
 real space projection scheme for non local part
 use partial core corrections
 calculate Harris-corrections to forces 
   (improved forces if not selfconsistent)
 use gradient corrections 
 use of overlap-Matrix (Vanderbilt PP)
 Fermi weights with tetrahedron method with Bloechl corrections


--------------------------------------------------------------------------------------------------------


  energy-cutoff  :      300.00
  volume of cell :       54.87
      direct lattice vectors                 reciprocal lattice vectors
     3.800000000  0.000000000  0.000000000     0.263157895  0.000000000  0.000000000
     0.000000000  3.800000000  0.000000000     0.000000000  0.263157895  0.000000000
     0.000000000  0.000000000  3.800000000     0.000000000  0.000000000  0.263157895

  length of vectors
     3.800000000  3.800000000  3.800000000     0.263157895  0.263157895  0.263157895


 
 k-points in units of 2pi/SCALE and weight: Automatic Mesh                          
   0.02192982  0.02192982  0.02192982       0.037
   0.06578947  0.02192982  0.02192982       0.111
   0.10964912  0.02192982  0.02192982       0.111
   0.06578947  0.06578947  0.02192982       0.111
   0.10964912  0.06578947  0.02192982       0.222
   0.10964912  0.10964912  0.02192982       0.111
   0.06578947  0.06578947  0.06578947       0.037
   0.10964912  0.06578947  0.06578947       0.111
   0.10964912  0.10964912  0.06578947       0.111
   0.10964912  0.10964912  0.10964912       0.037
 
 k-points in reciprocal lattice and weights: Automatic Mesh                          
   0.08333333  0.08333333  0.08333333       0.037
   0.25000000  0.08333333  0.08333333       0.111
   0.41666667  0.08333333  0.08333333       0.111
   0.25000000  0.25000000  0.08333333       0.111
   0.41666667  0.25000000  0.08333333       0.222
   0.41666667  0.41666667  0.08333333       0.111
   0.25000000  0.25000000  0.25000000       0.037
   0.41666667  0.25000000  0.25000000       0.111
   0.41666667  0.41666667  0.25000000       0.111
   0.41666667  0.41666667  0.41666667       0.037
 
 position of ions in fractional coordinates (direct lattice) 
   0.50000000  0.50000000  0.50000000
   0.00000000  0.00000000  0.00000000
   0.50000000  0.00000000  0.00000000
   0.00000000  0.50000000  0.00000000
   0.00000000  0.00000000  0.50000000
 
 position of ions in cartesian coordinates  (Angst):
   1.90000000  1.90000000  1.90000000
   0.00000000  0.00000000  0.00000000
   1.90000000  0.00000000  0.00000000
   0.00000000  1.90000000  0.00000000
   0.00000000  0.00000000  1.90000000
 


--------------------------------------------------------------------------------------------------------


 k-point  1 :   0.0833 0.0833 0.0833  plane waves:     655
 k-point  2 :   0.2500 0.0833 0.0833  plane waves:     660
 k-point  3 :   0.4167 0.0833 0.0833  plane waves:     644
 k-point  4 :   0.2500 0.2500 0.0833  plane waves:     651
 k-point  5 :   0.4167 0.2500 0.0833  plane waves:     645
 k-point  6 :   0.4167 0.4167 0.0833  plane waves:     648
 k-point  7 :   0.2500 0.2500 0.2500  plane waves:     654
 k-point  8 :   0.4167 0.2500 0.2500  plane waves:     648
 k-point  9 :   0.4167 0.4167 0.2500  plane waves:     645
 k-point 10 :   0.4167 0.4167 0.4167  plane waves:     648

 maximum and minimum number of plane-waves per node :       168      158

 maximum number of plane-waves:       660
 maximum index in each direction: 
   IXMAX=    5   IYMAX=    5   IZMAX=    5
   IXMIN=   -5   IYMIN=   -5   IZMIN=   -5

 WARNING: aliasing errors must be expected set NGX to  22 to avoid them
 WARNING: aliasing errors must be expected set NGY to  22 to avoid them
 WARNING: aliasing errors must be expected set NGZ to  22 to avoid them
 aliasing errors are usually negligible using standard VASP settings
 and one can safely disregard these warnings

 real space projection operators:
  total allocation   :        533.44 KBytes
  max/ min on nodes  :        138.47        131.62


 parallel 3D FFT for wavefunctions:
    minimum data exchange during FFTs selected (reduces bandwidth)
 parallel 3D FFT for charge:
    minimum data exchange during FFTs selected (reduces bandwidth)


 total amount of memory used by VASP on root node    31860. kBytes
========================================================================

   base      :      30000. kBytes
   nonlr-proj:        294. kBytes
   fftplans  :        173. kBytes
   grid      :        462. kBytes
   one-center:         62. kBytes
   wavefun   :        869. kBytes
 
     INWAV:  cpu time    0.0000: real time    0.0000
 Broyden mixing: mesh for mixing (old mesh)
   NGX = 11   NGY = 11   NGZ = 11
  (NGX  = 32   NGY  = 32   NGZ  = 32)
  gives a total of   1331 points

 initial charge density was supplied:
 charge density of overlapping atoms calculated
 number of electron      42.0000000 magnetization       5.0000000
 keeping initial charge density in first step


--------------------------------------------------------------------------------------------------------


 Maximum index for non-local projection operator          351
 Maximum index for augmentation-charges          543 (set IRDMAX)


--------------------------------------------------------------------------------------------------------


 First call to EWALD:  gamma=   0.466
 Maximum number of real-space cells 3x 3x 3
 Maximum number of reciprocal cells 3x 3x 3

 FEWALD executed in parallel
    FEWALD:  cpu time    0.0020: real time    0.0019


----------------------------------------- Iteration    1(   1)  ---------------------------------------


    POTLOK:  cpu time    0.0370: real time    0.0380
    SETDIJ:  cpu time    0.0120: real time    0.0125
atom =   1  type =  1  l = 0
 
 onsite density matrix
 
spin component  1
 
  1.1831
 
spin component  2
 
  0.9680
 
 occupancies and eigenvectors
 
  o =  0.9680  v =  0.0000  1.0000      0.0000  0.0000
  o =  1.1831  v =  1.0000  0.0000      0.0000  0.0000
atom =   2  type =  2  l = 2
 
 onsite density matrix
 
spin component  1
 
  0.6713  0.0000  0.0000  0.0000  0.0000
  0.0000  0.6713  0.0000  0.0000  0.0000
  0.0000  0.0000  0.6713  0.0000  0.0000
  0.0000  0.0000  0.0000  0.6713  0.0000
  0.0000  0.0000  0.0000  0.0000  0.6713
 
spin component  2
 
  0.5818  0.0000  0.0000  0.0000  0.0000
  0.0000  0.5818  0.0000  0.0000  0.0000
  0.0000  0.0000  0.5818  0.0000  0.0000
  0.0000  0.0000  0.0000  0.5818  0.0000
  0.0000  0.0000  0.0000  0.0000  0.5818
 
 occupancies and eigenvectors
 
  o =  0.5818  v =  0.0000  0.0000  0.0000  0.0000  0.0000  1.0000  0.0000  0.0000  0.0000  0.0000      0.0000  0.0000  0.0000  0.0000  0.0000  0.0000  0.0000  0.0000  0.0000  0.0000
  o =  0.5818  v =  0.0000  0.0000  0.0000  0.0000  0.0000  0.0000  1.0000  0.0000  0.0000  0.0000      0.0000  0.0000  0.0000  0.0000  0.0000  0.0000  0.0000  0.0000  0.0000  0.0000
  o =  0.5818  v =  0.0000  0.0000  0.0000  0.0000  0.0000  0.0000  0.0000  1.0000  0.0000  0.0000      0.0000  0.0000  0.0000  0.0000  0.0000  0.0000  0.0000  0.0000  0.0000  0.0000
  o =  0.5818  v =  0.0000  0.0000  0.0000  0.0000  0.0000  0.0000  0.0000  0.0000  1.0000  0.0000      0.0000  0.0000  0.0000  0.0000  0.0000  0.0000  0.0000  0.0000  0.0000  0.0000
  o =  0.5818  v =  0.0000  0.0000  0.0000  0.0000  0.0000  0.0000  0.0000  0.0000  0.0000  1.0000      0.0000  0.0000  0.0000  0.0000  0.0000  0.0000  0.0000  0.0000  0.0000  0.0000
  o =  0.6713  v =  1.0000  0.0000  0.0000  0.0000  0.0000  0.0000  0.0000  0.0000  0.0000  0.0000      0.0000  0.0000  0.0000  0.0000  0.0000  0.0000  0.0000  0.0000  0.0000  0.0000
  o =  0.6713  v =  0.0000  1.0000  0.0000  0.0000  0.0000  0.0000  0.0000  0.0000  0.0000  0.0000      0.0000  0.0000  0.0000  0.0000  0.0000  0.0000  0.0000  0.0000  0.0000  0.0000
  o =  0.6713  v =  0.0000  0.0000  1.0000  0.0000  0.0000  0.0000  0.0000  0.0000  0.0000  0.0000      0.0000  0.0000  0.0000  0.0000  0.0000  0.0000  0.0000  0.0000  0.0000  0.0000
  o =  0.6713  v =  0.0000  0.0000  0.0000  1.0000  0.0000  0.0000  0.0000  0.0000  0.0000  0.0000      0.0000  0.0000  0.0000  0.0000  0.0000  0.0000  0.0000  0.0000  0.0000  0.0000
  o =  0.6713  v =  0.0000  0.0000  0.0000  0.0000  1.0000  0.0000  0.0000  0.0000  0.0000  0.0000      0.0000  0.0000  0.0000  0.0000  0.0000  0.0000  0.0000  0.0000  0.0000  0.0000
atom =   3  type =  3  l = 0
 
 onsite density matrix
 
spin component  1
 
  1.0874
 
spin component  2
 
  0.7767
 
 occupancies and eigenvectors
 
  o =  0.7767  v =  0.0000  1.0000      0.0000  0.0000
  o =  1.0874  v =  1.0000  0.0000      0.0000  0.0000
atom =   4  type =  3  l = 0
 
 onsite density matrix
 
spin component  1
 
  1.0874
 
spin component  2
 
  0.7767
 
 occupancies and eigenvectors
 
  o =  0.7767  v =  0.0000  1.0000      0.0000  0.0000
  o =  1.0874  v =  1.0000  0.0000      0.0000  0.0000
atom =   5  type =  3  l = 0
 
 onsite density matrix
 
spin component  1
 
  1.0874
 
spin component  2
 
  0.7767
 
 occupancies and eigenvectors
 
  o =  0.7767  v =  0.0000  1.0000      0.0000  0.0000
  o =  1.0874  v =  1.0000  0.0000      0.0000  0.0000
     EDDAV:  cpu time    0.3449: real time    0.3449
 BZINTS: Fermi energy: 17.228786; 42.000000 electrons
         Band energy:-124.975801;  BLOECHL correction: -0.135199
       DOS:  cpu time    0.0130: real time    0.0134
    --------------------------------------------
      LOOP:  cpu time    0.4119: real time    0.4142

 eigenvalue-minimisations  :  1176
 total energy-change (2. order) : 0.3293559E+03  (-0.1684033E+04)
 number of electron      42.0000000 magnetization       5.0000000
 augmentation part       42.0000000 magnetization       5.0000000

 Free energy of the ion-electron system (eV)
  ---------------------------------------------------
  alpha Z        PSCENC =       313.24024960
  Ewald energy   TEWEN  =     -3324.63154527
  -Hartree energ DENC   =     -1251.58063669
  -exchange      EXHF   =         0.00000000
  -V(xc)+E(xc)   XCENC  =       191.35302574
  PAW double counting   =      3241.81915236    -3317.81696278
  entropy T*S    EENTRO =         0.00000000
  eigenvalues    EBANDS =      -124.97580054
  atomic energy  EATOM  =      4601.94837920
  Solvation  Ediel_sol  =         0.00000000
  ---------------------------------------------------
  free energy    TOTEN  =       329.35586162 eV

  energy without entropy =      329.35586162  energy(sigma->0) =      329.35586162


--------------------------------------------------------------------------------------------------------




----------------------------------------- Iteration    1(   2)  ---------------------------------------


     EDDAV:  cpu time    0.3260: real time    0.3295
 BZINTS: Fermi energy:  7.445272; 42.000000 electrons
         Band energy:-472.742193;  BLOECHL correction: -0.054603
       DOS:  cpu time    0.0130: real time    0.0126
    --------------------------------------------
      LOOP:  cpu time    0.3399: real time    0.3437

 eigenvalue-minimisations  :  1132
 total energy-change (2. order) :-0.3477664E+03  (-0.3369405E+03)
 number of electron      42.0000000 magnetization       5.0000000
 augmentation part       42.0000000 magnetization       5.0000000

 Free energy of the ion-electron system (eV)
  ---------------------------------------------------
  alpha Z        PSCENC =       313.24024960
  Ewald energy   TEWEN  =     -3324.63154527
  -Hartree energ DENC   =     -1251.58063669
  -exchange      EXHF   =         0.00000000
  -V(xc)+E(xc)   XCENC  =       191.35302574
  PAW double counting   =      3241.81915236    -3317.81696278
  entropy T*S    EENTRO =         0.00000000
  eigenvalues    EBANDS =      -472.74219268
  atomic energy  EATOM  =      4601.94837920
  Solvation  Ediel_sol  =         0.00000000
  ---------------------------------------------------
  free energy    TOTEN  =       -18.41053052 eV

  energy without entropy =      -18.41053052  energy(sigma->0) =      -18.41053052


--------------------------------------------------------------------------------------------------------




----------------------------------------- Iteration    1(   3)  ---------------------------------------


     EDDAV:  cpu time    0.4269: real time    0.4279
 BZINTS: Fermi energy:  6.982526; 42.000000 electrons
         Band energy:-491.448415;  BLOECHL correction: -0.053724
       DOS:  cpu time    0.0130: real time    0.0129
    --------------------------------------------
      LOOP:  cpu time    0.4409: real time    0.4422

 eigenvalue-minimisations  :  1524
 total energy-change (2. order) :-0.1870622E+02  (-0.1851366E+02)
 number of electron      42.0000000 magnetization       5.0000000
 augmentation part       42.0000000 magnetization       5.0000000

 Free energy of the ion-electron system (eV)
  ---------------------------------------------------
  alpha Z        PSCENC =       313.24024960
  Ewald energy   TEWEN  =     -3324.63154527
  -Hartree energ DENC   =     -1251.58063669
  -exchange      EXHF   =         0.00000000
  -V(xc)+E(xc)   XCENC  =       191.35302574
  PAW double counting   =      3241.81915236    -3317.81696278
  entropy T*S    EENTRO =         0.00000000
  eigenvalues    EBANDS =      -491.44841529
  atomic energy  EATOM  =      4601.94837920
  Solvation  Ediel_sol  =         0.00000000
  ---------------------------------------------------
  free energy    TOTEN  =       -37.11675313 eV

  energy without entropy =      -37.11675313  energy(sigma->0) =      -37.11675313


--------------------------------------------------------------------------------------------------------




----------------------------------------- Iteration    1(   4)  ---------------------------------------


     EDDAV:  cpu time    0.4829: real time    0.4845
 BZINTS: Fermi energy:  6.964225; 42.000000 electrons
         Band energy:-491.986080;  BLOECHL correction: -0.053994
       DOS:  cpu time    0.0110: real time    0.0114
    --------------------------------------------
      LOOP:  cpu time    0.4949: real time    0.4973

 eigenvalue-minimisations  :  1752
 total energy-change (2. order) :-0.5376647E+00  (-0.5355308E+00)
 number of electron      42.0000000 magnetization       5.0000000
 augmentation part       42.0000000 magnetization       5.0000000

 Free energy of the ion-electron system (eV)
  ---------------------------------------------------
  alpha Z        PSCENC =       313.24024960
  Ewald energy   TEWEN  =     -3324.63154527
  -Hartree energ DENC   =     -1251.58063669
  -exchange      EXHF   =         0.00000000
  -V(xc)+E(xc)   XCENC  =       191.35302574
  PAW double counting   =      3241.81915236    -3317.81696278
  entropy T*S    EENTRO =         0.00000000
  eigenvalues    EBANDS =      -491.98608002
  atomic energy  EATOM  =      4601.94837920
  Solvation  Ediel_sol  =         0.00000000
  ---------------------------------------------------
  free energy    TOTEN  =       -37.65441787 eV

  energy without entropy =      -37.65441787  energy(sigma->0) =      -37.65441787


--------------------------------------------------------------------------------------------------------




----------------------------------------- Iteration    1(   5)  ---------------------------------------


     EDDAV:  cpu time    0.4119: real time    0.4124
 BZINTS: Fermi energy:  6.963740; 42.000000 electrons
         Band energy:-491.992550;  BLOECHL correction: -0.053998
       DOS:  cpu time    0.0120: real time    0.0121
    CHARGE:  cpu time    0.0170: real time    0.0163
    MIXING:  cpu time    0.0000: real time    0.0004
    --------------------------------------------
      LOOP:  cpu time    0.4419: real time    0.4427

 eigenvalue-minimisations  :  1476
 total energy-change (2. order) :-0.6470098E-02  (-0.6461171E-02)
 number of electron      42.0000561 magnetization       1.9255445
 augmentation part       12.8760096 magnetization       1.1715993

 Broyden mixing:
  rms(total) = 0.26173E+01    rms(broyden)= 0.26079E+01
  rms(prec ) = 0.60027E+01
  weight for this iteration     100.00

 Free energy of the ion-electron system (eV)
  ---------------------------------------------------
  alpha Z        PSCENC =       313.24024960
  Ewald energy   TEWEN  =     -3324.63154527
  -Hartree energ DENC   =     -1251.58063669
  -exchange      EXHF   =         0.00000000
  -V(xc)+E(xc)   XCENC  =       191.35302574
  PAW double counting   =      3241.81915236    -3317.81696278
  entropy T*S    EENTRO =         0.00000000
  eigenvalues    EBANDS =      -491.99255012
  atomic energy  EATOM  =      4601.94837920
  Solvation  Ediel_sol  =         0.00000000
  ---------------------------------------------------
  free energy    TOTEN  =       -37.66088796 eV

  energy without entropy =      -37.66088796  energy(sigma->0) =      -37.66088796


--------------------------------------------------------------------------------------------------------




----------------------------------------- Iteration    1(   6)  ---------------------------------------


    POTLOK:  cpu time    0.0370: real time    0.0375
    SETDIJ:  cpu time    0.0120: real time    0.0121
atom =   1  type =  1  l = 0
 
 onsite density matrix
 
spin component  1
 
  0.9778
 
spin component  2
 
  1.1093
 
 occupancies and eigenvectors
 
  o =  0.9778  v =  1.0000  0.0000      0.0000  0.0000
  o =  1.1093  v =  0.0000  1.0000      0.0000  0.0000
atom =   2  type =  2  l = 2
 
 onsite density matrix
 
spin component  1
 
  1.0927  0.0000  0.0000  0.0000  0.0000
  0.0000  1.0927  0.0000  0.0000  0.0000
  0.0000  0.0000  0.5024  0.0000  0.0000
  0.0000  0.0000  0.0000  1.0927  0.0000
  0.0000  0.0000  0.0000  0.0000  0.5024
 
spin component  2
 
  0.1371  0.0000  0.0000  0.0000  0.0000
  0.0000  0.1371  0.0000  0.0000  0.0000
  0.0000  0.0000  0.4215  0.0000  0.0000
  0.0000  0.0000  0.0000  0.1371  0.0000
  0.0000  0.0000  0.0000  0.0000  0.4215
 
 occupancies and eigenvectors
 
  o =  0.1371  v =  0.0000  0.0000  0.0000  0.0000  0.0000  1.0000  0.0000  0.0000  0.0000  0.0000      0.0000  0.0000  0.0000  0.0000  0.0000  0.0000  0.0000  0.0000  0.0000  0.0000
  o =  0.1371  v =  0.0000  0.0000  0.0000  0.0000  0.0000  0.0000  0.8712  0.0000 -0.4909  0.0000      0.0000  0.0000  0.0000  0.0000  0.0000  0.0000  0.0000  0.0000  0.0000  0.0000
  o =  0.1371  v =  0.0000  0.0000  0.0000  0.0000  0.0000  0.0000  0.4909  0.0000  0.8712  0.0000      0.0000  0.0000  0.0000  0.0000  0.0000  0.0000  0.0000  0.0000  0.0000  0.0000
  o =  0.4215  v =  0.0000  0.0000  0.0000  0.0000  0.0000  0.0000  0.0000 -1.0000  0.0000 -0.0032      0.0000  0.0000  0.0000  0.0000  0.0000  0.0000  0.0000  0.0000  0.0000  0.0000
  o =  0.4215  v =  0.0000  0.0000  0.0000  0.0000  0.0000  0.0000  0.0000 -0.0032  0.0000  1.0000      0.0000  0.0000  0.0000  0.0000  0.0000  0.0000  0.0000  0.0000  0.0000  0.0000
  o =  0.5024  v =  0.0000  0.0000  0.9970  0.0000 -0.0768  0.0000  0.0000  0.0000  0.0000  0.0000      0.0000  0.0000  0.0000  0.0000  0.0000  0.0000  0.0000  0.0000  0.0000  0.0000
  o =  0.5024  v =  0.0000  0.0000 -0.0768  0.0000 -0.9970  0.0000  0.0000  0.0000  0.0000  0.0000      0.0000  0.0000  0.0000  0.0000  0.0000  0.0000  0.0000  0.0000  0.0000  0.0000
  o =  1.0927  v =  0.0000 -0.9900  0.0000 -0.1414  0.0000  0.0000  0.0000  0.0000  0.0000  0.0000      0.0000  0.0000  0.0000  0.0000  0.0000  0.0000  0.0000  0.0000  0.0000  0.0000
  o =  1.0927  v =  0.0000  0.1414  0.0000 -0.9900  0.0000  0.0000  0.0000  0.0000  0.0000  0.0000      0.0000  0.0000  0.0000  0.0000  0.0000  0.0000  0.0000  0.0000  0.0000  0.0000
  o =  1.0927  v =  1.0000  0.0000  0.0000  0.0000  0.0000  0.0000  0.0000  0.0000  0.0000  0.0000      0.0000  0.0000  0.0000  0.0000  0.0000  0.0000  0.0000  0.0000  0.0000  0.0000
atom =   3  type =  3  l = 0
 
 onsite density matrix
 
spin component  1
 
  0.8422
 
spin component  2
 
  1.0234
 
 occupancies and eigenvectors
 
  o =  0.8422  v =  1.0000  0.0000      0.0000  0.0000
  o =  1.0234  v =  0.0000  1.0000      0.0000  0.0000
atom =   4  type =  3  l = 0
 
 onsite density matrix
 
spin component  1
 
  0.8422
 
spin component  2
 
  1.0234
 
 occupancies and eigenvectors
 
  o =  0.8422  v =  1.0000  0.0000      0.0000  0.0000
  o =  1.0234  v =  0.0000  1.0000      0.0000  0.0000
atom =   5  type =  3  l = 0
 
 onsite density matrix
 
spin component  1
 
  0.8422
 
spin component  2
 
  1.0234
 
 occupancies and eigenvectors
 
  o =  0.8422  v =  1.0000  0.0000      0.0000  0.0000
  o =  1.0234  v =  0.0000  1.0000      0.0000  0.0000
    EDDIAG:  cpu time    0.0700: real time    0.0691
  RMM-DIIS:  cpu time    0.1490: real time    0.1498
    ORTHCH:  cpu time    0.0110: real time    0.0119
 BZINTS: Fermi energy:  2.860401; 42.000000 electrons
         Band energy:-566.121083;  BLOECHL correction: -0.099350
       DOS:  cpu time    0.0140: real time    0.0139
    CHARGE:  cpu time    0.0160: real time    0.0153
    MIXING:  cpu time    0.0000: real time    0.0004
    --------------------------------------------
      LOOP:  cpu time    0.3110: real time    0.3120

 eigenvalue-minimisations  :  1234
 total energy-change (2. order) :-0.4120616E+01  (-0.1190483E+02)
 number of electron      42.0000420 magnetization       1.3942788
 augmentation part       14.5794299 magnetization       1.2554216

 Broyden mixing:
  rms(total) = 0.38403E+01    rms(broyden)= 0.38374E+01
  rms(prec ) = 0.91742E+01
  weight for this iteration     100.00

 eigenvalues of (default mixing * dielectric matrix)
  average eigenvalue GAMMA=   0.4317
  0.4317

 Free energy of the ion-electron system (eV)
  ---------------------------------------------------
  alpha Z        PSCENC =       313.24024960
  Ewald energy   TEWEN  =     -3324.63154527
  -Hartree energ DENC   =     -1186.21434594
  -exchange      EXHF   =         0.00000000
  -V(xc)+E(xc)   XCENC  =       191.23975658
  PAW double counting   =      3251.92088630    -3323.16380153
  entropy T*S    EENTRO =         0.00000000
  eigenvalues    EBANDS =      -566.12108261
  atomic energy  EATOM  =      4601.94837920
  Solvation  Ediel_sol  =         0.00000000
  ---------------------------------------------------
  free energy    TOTEN  =       -41.78150368 eV

  energy without entropy =      -41.78150368  energy(sigma->0) =      -41.78150368


--------------------------------------------------------------------------------------------------------




----------------------------------------- Iteration    1(   7)  ---------------------------------------


    POTLOK:  cpu time    0.0370: real time    0.0376
    SETDIJ:  cpu time    0.0120: real time    0.0119
atom =   1  type =  1  l = 0
 
 onsite density matrix
 
spin component  1
 
  1.0121
 
spin component  2
 
  1.0615
 
 occupancies and eigenvectors
 
  o =  1.0121  v =  1.0000  0.0000      0.0000  0.0000
  o =  1.0615  v =  0.0000  1.0000      0.0000  0.0000
atom =   2  type =  2  l = 2
 
 onsite density matrix
 
spin component  1
 
  0.8978  0.0000  0.0000  0.0000  0.0000
  0.0000  0.8978  0.0000  0.0000  0.0000
  0.0000  0.0000  0.5620  0.0000  0.0000
  0.0000  0.0000  0.0000  0.8978  0.0000
  0.0000  0.0000  0.0000  0.0000  0.5620
 
spin component  2
 
  0.4175  0.0000  0.0000  0.0000  0.0000
  0.0000  0.4175  0.0000  0.0000  0.0000
  0.0000  0.0000  0.4905  0.0000  0.0000
  0.0000  0.0000  0.0000  0.4175  0.0000
  0.0000  0.0000  0.0000  0.0000  0.4905
 
 occupancies and eigenvectors
 
  o =  0.4175  v =  0.0000  0.0000  0.0000  0.0000  0.0000  1.0000  0.0000  0.0000  0.0000  0.0000      0.0000  0.0000  0.0000  0.0000  0.0000  0.0000  0.0000  0.0000  0.0000  0.0000
  o =  0.4175  v =  0.0000  0.0000  0.0000  0.0000  0.0000  0.0000 -0.3428  0.0000 -0.9394  0.0000      0.0000  0.0000  0.0000  0.0000  0.0000  0.0000  0.0000  0.0000  0.0000  0.0000
  o =  0.4175  v =  0.0000  0.0000  0.0000  0.0000  0.0000  0.0000 -0.9394  0.0000  0.3428  0.0000      0.0000  0.0000  0.0000  0.0000  0.0000  0.0000  0.0000  0.0000  0.0000  0.0000
  o =  0.4905  v =  0.0000  0.0000  0.0000  0.0000  0.0000  0.0000  0.0000 -0.8774  0.0000 -0.4798      0.0000  0.0000  0.0000  0.0000  0.0000  0.0000  0.0000  0.0000  0.0000  0.0000
  o =  0.4905  v =  0.0000  0.0000  0.0000  0.0000  0.0000  0.0000  0.0000 -0.4798  0.0000  0.8774      0.0000  0.0000  0.0000  0.0000  0.0000  0.0000  0.0000  0.0000  0.0000  0.0000
  o =  0.5620  v =  0.0000  0.0000  0.7188  0.0000 -0.6952  0.0000  0.0000  0.0000  0.0000  0.0000      0.0000  0.0000  0.0000  0.0000  0.0000  0.0000  0.0000  0.0000  0.0000  0.0000
  o =  0.5620  v =  0.0000  0.0000  0.6952  0.0000  0.7188  0.0000  0.0000  0.0000  0.0000  0.0000      0.0000  0.0000  0.0000  0.0000  0.0000  0.0000  0.0000  0.0000  0.0000  0.0000
  o =  0.8978  v =  0.0000  0.5699  0.0000 -0.8217  0.0000  0.0000  0.0000  0.0000  0.0000  0.0000      0.0000  0.0000  0.0000  0.0000  0.0000  0.0000  0.0000  0.0000  0.0000  0.0000
  o =  0.8978  v =  1.0000  0.0000  0.0000  0.0000  0.0000  0.0000  0.0000  0.0000  0.0000  0.0000      0.0000  0.0000  0.0000  0.0000  0.0000  0.0000  0.0000  0.0000  0.0000  0.0000
  o =  0.8978  v =  0.0000  0.8217  0.0000  0.5699  0.0000  0.0000  0.0000  0.0000  0.0000  0.0000      0.0000  0.0000  0.0000  0.0000  0.0000  0.0000  0.0000  0.0000  0.0000  0.0000
atom =   3  type =  3  l = 0
 
 onsite density matrix
 
spin component  1
 
  0.8996
 
spin component  2
 
  0.9681
 
 occupancies and eigenvectors
 
  o =  0.8996  v =  1.0000  0.0000      0.0000  0.0000
  o =  0.9681  v =  0.0000  1.0000      0.0000  0.0000
atom =   4  type =  3  l = 0
 
 onsite density matrix
 
spin component  1
 
  0.8996
 
spin component  2
 
  0.9681
 
 occupancies and eigenvectors
 
  o =  0.8996  v =  1.0000  0.0000      0.0000  0.0000
  o =  0.9681  v =  0.0000  1.0000      0.0000  0.0000
atom =   5  type =  3  l = 0
 
 onsite density matrix
 
spin component  1
 
  0.8996
 
spin component  2
 
  0.9681
 
 occupancies and eigenvectors
 
  o =  0.8996  v =  1.0000  0.0000      0.0000  0.0000
  o =  0.9681  v =  0.0000  1.0000      0.0000  0.0000
    EDDIAG:  cpu time    0.0690: real time    0.0702
  RMM-DIIS:  cpu time    0.1390: real time    0.1389
    ORTHCH:  cpu time    0.0110: real time    0.0117
 BZINTS: Fermi energy:  5.653864; 42.000000 electrons
         Band energy:-489.429193;  BLOECHL correction: -0.089322
       DOS:  cpu time    0.0130: real time    0.0123
    CHARGE:  cpu time    0.0150: real time    0.0155
    MIXING:  cpu time    0.0010: real time    0.0004
    --------------------------------------------
      LOOP:  cpu time    0.2980: real time    0.3007

 eigenvalue-minimisations  :  1167
 total energy-change (2. order) : 0.9986646E+01  (-0.2988616E+01)
 number of electron      42.0000522 magnetization       2.4697118
 augmentation part       12.8085662 magnetization       1.4483338

 Broyden mixing:
  rms(total) = 0.15006E+01    rms(broyden)= 0.14982E+01
  rms(prec ) = 0.29284E+01
  weight for this iteration     100.00

 eigenvalues of (default mixing * dielectric matrix)
  average eigenvalue GAMMA=   0.4423
  0.2246  0.6601

 Free energy of the ion-electron system (eV)
  ---------------------------------------------------
  alpha Z        PSCENC =       313.24024960
  Ewald energy   TEWEN  =     -3324.63154527
  -Hartree energ DENC   =     -1241.83081988
  -exchange      EXHF   =         0.00000000
  -V(xc)+E(xc)   XCENC  =       191.86998465
  PAW double counting   =      3381.55858662    -3464.52049995
  entropy T*S    EENTRO =         0.00000000
  eigenvalues    EBANDS =      -489.42919252
  atomic energy  EATOM  =      4601.94837920
  Solvation  Ediel_sol  =         0.00000000
  ---------------------------------------------------
  free energy    TOTEN  =       -31.79485755 eV

  energy without entropy =      -31.79485755  energy(sigma->0) =      -31.79485755


--------------------------------------------------------------------------------------------------------




----------------------------------------- Iteration    1(   8)  ---------------------------------------


    POTLOK:  cpu time    0.0370: real time    0.0374
    SETDIJ:  cpu time    0.0120: real time    0.0119
atom =   1  type =  1  l = 0
 
 onsite density matrix
 
spin component  1
 
  1.0353
 
spin component  2
 
  1.0176
 
 occupancies and eigenvectors
 
  o =  1.0176  v =  0.0000  1.0000      0.0000  0.0000
  o =  1.0353  v =  1.0000  0.0000      0.0000  0.0000
atom =   2  type =  2  l = 2
 
 onsite density matrix
 
spin component  1
 
  0.9575  0.0000  0.0000  0.0000  0.0000
  0.0000  0.9575  0.0000  0.0000  0.0000
  0.0000  0.0000  0.6570  0.0000  0.0000
  0.0000  0.0000  0.0000  0.9575  0.0000
  0.0000  0.0000  0.0000  0.0000  0.6570
 
spin component  2
 
  0.3435  0.0000  0.0000  0.0000  0.0000
  0.0000  0.3435  0.0000  0.0000  0.0000
  0.0000  0.0000  0.3696  0.0000  0.0000
  0.0000  0.0000  0.0000  0.3435  0.0000
  0.0000  0.0000  0.0000  0.0000  0.3696
 
 occupancies and eigenvectors
 
  o =  0.3435  v =  0.0000  0.0000  0.0000  0.0000  0.0000  1.0000  0.0000  0.0000  0.0000  0.0000      0.0000  0.0000  0.0000  0.0000  0.0000  0.0000  0.0000  0.0000  0.0000  0.0000
  o =  0.3435  v =  0.0000  0.0000  0.0000  0.0000  0.0000  0.0000 -0.6424  0.0000 -0.7663  0.0000      0.0000  0.0000  0.0000  0.0000  0.0000  0.0000  0.0000  0.0000  0.0000  0.0000
  o =  0.3435  v =  0.0000  0.0000  0.0000  0.0000  0.0000  0.0000  0.7663  0.0000 -0.6424  0.0000      0.0000  0.0000  0.0000  0.0000  0.0000  0.0000  0.0000  0.0000  0.0000  0.0000
  o =  0.3696  v =  0.0000  0.0000  0.0000  0.0000  0.0000  0.0000  0.0000  0.9869  0.0000 -0.1614      0.0000  0.0000  0.0000  0.0000  0.0000  0.0000  0.0000  0.0000  0.0000  0.0000
  o =  0.3696  v =  0.0000  0.0000  0.0000  0.0000  0.0000  0.0000  0.0000  0.1614  0.0000  0.9869      0.0000  0.0000  0.0000  0.0000  0.0000  0.0000  0.0000  0.0000  0.0000  0.0000
  o =  0.6570  v =  0.0000  0.0000  0.5359  0.0000  0.8443  0.0000  0.0000  0.0000  0.0000  0.0000      0.0000  0.0000  0.0000  0.0000  0.0000  0.0000  0.0000  0.0000  0.0000  0.0000
  o =  0.6570  v =  0.0000  0.0000 -0.8443  0.0000  0.5359  0.0000  0.0000  0.0000  0.0000  0.0000      0.0000  0.0000  0.0000  0.0000  0.0000  0.0000  0.0000  0.0000  0.0000  0.0000
  o =  0.9575  v =  0.0000  0.9282  0.0000 -0.3721  0.0000  0.0000  0.0000  0.0000  0.0000  0.0000      0.0000  0.0000  0.0000  0.0000  0.0000  0.0000  0.0000  0.0000  0.0000  0.0000
  o =  0.9575  v =  0.0000  0.3721  0.0000  0.9282  0.0000  0.0000  0.0000  0.0000  0.0000  0.0000      0.0000  0.0000  0.0000  0.0000  0.0000  0.0000  0.0000  0.0000  0.0000  0.0000
  o =  0.9575  v =  1.0000  0.0000  0.0000  0.0000  0.0000  0.0000  0.0000  0.0000  0.0000  0.0000      0.0000  0.0000  0.0000  0.0000  0.0000  0.0000  0.0000  0.0000  0.0000  0.0000
atom =   3  type =  3  l = 0
 
 onsite density matrix
 
spin component  1
 
  0.9499
 
spin component  2
 
  0.9202
 
 occupancies and eigenvectors
 
  o =  0.9202  v =  0.0000  1.0000      0.0000  0.0000
  o =  0.9499  v =  1.0000  0.0000      0.0000  0.0000
atom =   4  type =  3  l = 0
 
 onsite density matrix
 
spin component  1
 
  0.9499
 
spin component  2
 
  0.9202
 
 occupancies and eigenvectors
 
  o =  0.9202  v =  0.0000  1.0000      0.0000  0.0000
  o =  0.9499  v =  1.0000  0.0000      0.0000  0.0000
atom =   5  type =  3  l = 0
 
 onsite density matrix
 
spin component  1
 
  0.9499
 
spin component  2
 
  0.9202
 
 occupancies and eigenvectors
 
  o =  0.9202  v =  0.0000  1.0000      0.0000  0.0000
  o =  0.9499  v =  1.0000  0.0000      0.0000  0.0000
    EDDIAG:  cpu time    0.0690: real time    0.0690
  RMM-DIIS:  cpu time    0.1480: real time    0.1480
    ORTHCH:  cpu time    0.0120: real time    0.0121
 BZINTS: Fermi energy:  5.073067; 42.000000 electrons
         Band energy:-499.097666;  BLOECHL correction: -0.065931
       DOS:  cpu time    0.0120: real time    0.0121
    CHARGE:  cpu time    0.0150: real time    0.0152
    MIXING:  cpu time    0.0010: real time    0.0005
    --------------------------------------------
      LOOP:  cpu time    0.3070: real time    0.3083

 eigenvalue-minimisations  :  1228
 total energy-change (2. order) : 0.2725209E+00  (-0.5967146E-01)
 number of electron      42.0000533 magnetization       4.0872967
 augmentation part       12.8745359 magnetization       2.8900925

 Broyden mixing:
  rms(total) = 0.12001E+01    rms(broyden)= 0.11989E+01
  rms(prec ) = 0.22734E+01
  weight for this iteration     100.00

 eigenvalues of (default mixing * dielectric matrix)
  average eigenvalue GAMMA=   0.5872
  0.6938  0.6938  0.3740

 Free energy of the ion-electron system (eV)
  ---------------------------------------------------
  alpha Z        PSCENC =       313.24024960
  Ewald energy   TEWEN  =     -3324.63154527
  -Hartree energ DENC   =     -1231.08790468
  -exchange      EXHF   =         0.00000000
  -V(xc)+E(xc)   XCENC  =       192.02104020
  PAW double counting   =      3413.27559625    -3497.19048639
  entropy T*S    EENTRO =         0.00000000
  eigenvalues    EBANDS =      -499.09766559
  atomic energy  EATOM  =      4601.94837920
  Solvation  Ediel_sol  =         0.00000000
  ---------------------------------------------------
  free energy    TOTEN  =       -31.52233667 eV

  energy without entropy =      -31.52233667  energy(sigma->0) =      -31.52233667


--------------------------------------------------------------------------------------------------------




----------------------------------------- Iteration    1(   9)  ---------------------------------------


    POTLOK:  cpu time    0.0370: real time    0.0375
    SETDIJ:  cpu time    0.0120: real time    0.0119
atom =   1  type =  1  l = 0
 
 onsite density matrix
 
spin component  1
 
  0.9899
 
spin component  2
 
  1.0365
 
 occupancies and eigenvectors
 
  o =  0.9899  v =  1.0000  0.0000      0.0000  0.0000
  o =  1.0365  v =  0.0000  1.0000      0.0000  0.0000
atom =   2  type =  2  l = 2
 
 onsite density matrix
 
spin component  1
 
  1.0364  0.0000  0.0000  0.0000  0.0000
  0.0000  1.0364  0.0000  0.0000  0.0000
  0.0000  0.0000  0.8783  0.0000  0.0000
  0.0000  0.0000  0.0000  1.0364  0.0000
  0.0000  0.0000  0.0000  0.0000  0.8783
 
spin component  2
 
  0.1724  0.0000  0.0000  0.0000  0.0000
  0.0000  0.1724  0.0000  0.0000  0.0000
  0.0000  0.0000  0.2224  0.0000  0.0000
  0.0000  0.0000  0.0000  0.1724  0.0000
  0.0000  0.0000  0.0000  0.0000  0.2224
 
 occupancies and eigenvectors
 
  o =  0.1724  v =  0.0000  0.0000  0.0000  0.0000  0.0000  0.0000 -0.2984  0.0000  0.9544  0.0000      0.0000  0.0000  0.0000  0.0000  0.0000  0.0000  0.0000  0.0000  0.0000  0.0000
  o =  0.1724  v =  0.0000  0.0000  0.0000  0.0000  0.0000  0.0000  0.9544  0.0000  0.2984  0.0000      0.0000  0.0000  0.0000  0.0000  0.0000  0.0000  0.0000  0.0000  0.0000  0.0000
  o =  0.1724  v =  0.0000  0.0000  0.0000  0.0000  0.0000  1.0000  0.0000  0.0000  0.0000  0.0000      0.0000  0.0000  0.0000  0.0000  0.0000  0.0000  0.0000  0.0000  0.0000  0.0000
  o =  0.2224  v =  0.0000  0.0000  0.0000  0.0000  0.0000  0.0000  0.0000 -0.9982  0.0000 -0.0596      0.0000  0.0000  0.0000  0.0000  0.0000  0.0000  0.0000  0.0000  0.0000  0.0000
  o =  0.2224  v =  0.0000  0.0000  0.0000  0.0000  0.0000  0.0000  0.0000  0.0596  0.0000 -0.9982      0.0000  0.0000  0.0000  0.0000  0.0000  0.0000  0.0000  0.0000  0.0000  0.0000
  o =  0.8783  v =  0.0000  0.0000  0.9994  0.0000  0.0346  0.0000  0.0000  0.0000  0.0000  0.0000      0.0000  0.0000  0.0000  0.0000  0.0000  0.0000  0.0000  0.0000  0.0000  0.0000
  o =  0.8783  v =  0.0000  0.0000  0.0346  0.0000 -0.9994  0.0000  0.0000  0.0000  0.0000  0.0000      0.0000  0.0000  0.0000  0.0000  0.0000  0.0000  0.0000  0.0000  0.0000  0.0000
  o =  1.0364  v =  0.0000 -0.9849  0.0000 -0.1729  0.0000  0.0000  0.0000  0.0000  0.0000  0.0000      0.0000  0.0000  0.0000  0.0000  0.0000  0.0000  0.0000  0.0000  0.0000  0.0000
  o =  1.0364  v =  1.0000  0.0000  0.0000  0.0000  0.0000  0.0000  0.0000  0.0000  0.0000  0.0000      0.0000  0.0000  0.0000  0.0000  0.0000  0.0000  0.0000  0.0000  0.0000  0.0000
  o =  1.0364  v =  0.0000 -0.1729  0.0000  0.9849  0.0000  0.0000  0.0000  0.0000  0.0000  0.0000      0.0000  0.0000  0.0000  0.0000  0.0000  0.0000  0.0000  0.0000  0.0000  0.0000
atom =   3  type =  3  l = 0
 
 onsite density matrix
 
spin component  1
 
  0.9089
 
spin component  2
 
  0.9636
 
 occupancies and eigenvectors
 
  o =  0.9089  v =  1.0000  0.0000      0.0000  0.0000
  o =  0.9636  v =  0.0000  1.0000      0.0000  0.0000
atom =   4  type =  3  l = 0
 
 onsite density matrix
 
spin component  1
 
  0.9089
 
spin component  2
 
  0.9636
 
 occupancies and eigenvectors
 
  o =  0.9089  v =  1.0000  0.0000      0.0000  0.0000
  o =  0.9636  v =  0.0000  1.0000      0.0000  0.0000
atom =   5  type =  3  l = 0
 
 onsite density matrix
 
spin component  1
 
  0.9089
 
spin component  2
 
  0.9636
 
 occupancies and eigenvectors
 
  o =  0.9089  v =  1.0000  0.0000      0.0000  0.0000
  o =  0.9636  v =  0.0000  1.0000      0.0000  0.0000
    EDDIAG:  cpu time    0.0690: real time    0.0690
  RMM-DIIS:  cpu time    0.1380: real time    0.1373
    ORTHCH:  cpu time    0.0110: real time    0.0117
 BZINTS: Fermi energy:  3.669965; 42.000000 electrons
         Band energy:-512.969971;  BLOECHL correction: -0.060865
       DOS:  cpu time    0.0120: real time    0.0120
    CHARGE:  cpu time    0.0160: real time    0.0154
    MIXING:  cpu time    0.0000: real time    0.0005
    --------------------------------------------
      LOOP:  cpu time    0.2960: real time    0.2974

 eigenvalue-minimisations  :  1148
 total energy-change (2. order) :-0.3896634E-01  (-0.1833753E+00)
 number of electron      42.0000528 magnetization       3.9950040
 augmentation part       12.9666866 magnetization       2.9110801

 Broyden mixing:
  rms(total) = 0.39186E+00    rms(broyden)= 0.38868E+00
  rms(prec ) = 0.10579E+01
  weight for this iteration     100.00

 eigenvalues of (default mixing * dielectric matrix)
  average eigenvalue GAMMA=   0.8521
  0.3247  1.2897  0.8970  0.8970

 Free energy of the ion-electron system (eV)
  ---------------------------------------------------
  alpha Z        PSCENC =       313.24024960
  Ewald energy   TEWEN  =     -3324.63154527
  -Hartree energ DENC   =     -1218.04052833
  -exchange      EXHF   =         0.00000000
  -V(xc)+E(xc)   XCENC  =       192.90462576
  PAW double counting   =      3462.22735095    -3546.23986384
  entropy T*S    EENTRO =         0.00000000
  eigenvalues    EBANDS =      -512.96997110
  atomic energy  EATOM  =      4601.94837920
  Solvation  Ediel_sol  =         0.00000000
  ---------------------------------------------------
  free energy    TOTEN  =       -31.56130302 eV

  energy without entropy =      -31.56130302  energy(sigma->0) =      -31.56130302


--------------------------------------------------------------------------------------------------------




----------------------------------------- Iteration    1(  10)  ---------------------------------------


    POTLOK:  cpu time    0.0360: real time    0.0374
    SETDIJ:  cpu time    0.0120: real time    0.0119
atom =   1  type =  1  l = 0
 
 onsite density matrix
 
spin component  1
 
  1.0135
 
spin component  2
 
  1.0022
 
 occupancies and eigenvectors
 
  o =  1.0022  v =  0.0000  1.0000      0.0000  0.0000
  o =  1.0135  v =  1.0000  0.0000      0.0000  0.0000
atom =   2  type =  2  l = 2
 
 onsite density matrix
 
spin component  1
 
  0.9980  0.0000  0.0000  0.0000  0.0000
  0.0000  0.9980  0.0000  0.0000  0.0000
  0.0000  0.0000  0.8727  0.0000  0.0000
  0.0000  0.0000  0.0000  0.9980  0.0000
  0.0000  0.0000  0.0000  0.0000  0.8727
 
spin component  2
 
  0.1720  0.0000  0.0000  0.0000  0.0000
  0.0000  0.1720  0.0000  0.0000  0.0000
  0.0000  0.0000  0.2513  0.0000  0.0000
  0.0000  0.0000  0.0000  0.1720  0.0000
  0.0000  0.0000  0.0000  0.0000  0.2513
 
 occupancies and eigenvectors
 
  o =  0.1720  v =  0.0000  0.0000  0.0000  0.0000  0.0000  0.0000 -0.7461  0.0000  0.6658  0.0000      0.0000  0.0000  0.0000  0.0000  0.0000  0.0000  0.0000  0.0000  0.0000  0.0000
  o =  0.1720  v =  0.0000  0.0000  0.0000  0.0000  0.0000  0.0000 -0.6658  0.0000 -0.7461  0.0000      0.0000  0.0000  0.0000  0.0000  0.0000  0.0000  0.0000  0.0000  0.0000  0.0000
  o =  0.1720  v =  0.0000  0.0000  0.0000  0.0000  0.0000  1.0000  0.0000  0.0000  0.0000  0.0000      0.0000  0.0000  0.0000  0.0000  0.0000  0.0000  0.0000  0.0000  0.0000  0.0000
  o =  0.2513  v =  0.0000  0.0000  0.0000  0.0000  0.0000  0.0000  0.0000  0.0904  0.0000 -0.9959      0.0000  0.0000  0.0000  0.0000  0.0000  0.0000  0.0000  0.0000  0.0000  0.0000
  o =  0.2513  v =  0.0000  0.0000  0.0000  0.0000  0.0000  0.0000  0.0000  0.9959  0.0000  0.0904      0.0000  0.0000  0.0000  0.0000  0.0000  0.0000  0.0000  0.0000  0.0000  0.0000
  o =  0.8727  v =  0.0000  0.0000  0.9796  0.0000 -0.2009  0.0000  0.0000  0.0000  0.0000  0.0000      0.0000  0.0000  0.0000  0.0000  0.0000  0.0000  0.0000  0.0000  0.0000  0.0000
  o =  0.8727  v =  0.0000  0.0000 -0.2009  0.0000 -0.9796  0.0000  0.0000  0.0000  0.0000  0.0000      0.0000  0.0000  0.0000  0.0000  0.0000  0.0000  0.0000  0.0000  0.0000  0.0000
  o =  0.9980  v =  1.0000  0.0000  0.0000  0.0000  0.0000  0.0000  0.0000  0.0000  0.0000  0.0000      0.0000  0.0000  0.0000  0.0000  0.0000  0.0000  0.0000  0.0000  0.0000  0.0000
  o =  0.9980  v =  0.0000  0.3185  0.0000  0.9479  0.0000  0.0000  0.0000  0.0000  0.0000  0.0000      0.0000  0.0000  0.0000  0.0000  0.0000  0.0000  0.0000  0.0000  0.0000  0.0000
  o =  0.9980  v =  0.0000  0.9479  0.0000 -0.3185  0.0000  0.0000  0.0000  0.0000  0.0000  0.0000      0.0000  0.0000  0.0000  0.0000  0.0000  0.0000  0.0000  0.0000  0.0000  0.0000
atom =   3  type =  3  l = 0
 
 onsite density matrix
 
spin component  1
 
  0.9480
 
spin component  2
 
  0.9248
 
 occupancies and eigenvectors
 
  o =  0.9248  v =  0.0000  1.0000      0.0000  0.0000
  o =  0.9480  v =  1.0000  0.0000      0.0000  0.0000
atom =   4  type =  3  l = 0
 
 onsite density matrix
 
spin component  1
 
  0.9480
 
spin component  2
 
  0.9248
 
 occupancies and eigenvectors
 
  o =  0.9248  v =  0.0000  1.0000      0.0000  0.0000
  o =  0.9480  v =  1.0000  0.0000      0.0000  0.0000
atom =   5  type =  3  l = 0
 
 onsite density matrix
 
spin component  1
 
  0.9480
 
spin component  2
 
  0.9248
 
 occupancies and eigenvectors
 
  o =  0.9248  v =  0.0000  1.0000      0.0000  0.0000
  o =  0.9480  v =  1.0000  0.0000      0.0000  0.0000
    EDDIAG:  cpu time    0.0690: real time    0.0690
  RMM-DIIS:  cpu time    0.1390: real time    0.1407
    ORTHCH:  cpu time    0.0110: real time    0.0117
 BZINTS: Fermi energy:  3.538203; 42.000000 electrons
         Band energy:-518.434755;  BLOECHL correction: -0.055547
       DOS:  cpu time    0.0120: real time    0.0120
    CHARGE:  cpu time    0.0150: real time    0.0150
    MIXING:  cpu time    0.0010: real time    0.0005
    --------------------------------------------
      LOOP:  cpu time    0.2980: real time    0.3003

 eigenvalue-minimisations  :  1181
 total energy-change (2. order) : 0.2357597E+00  (-0.2516565E-01)
 number of electron      42.0000523 magnetization       4.0462897
 augmentation part       13.0183292 magnetization       2.9599339

 Broyden mixing:
  rms(total) = 0.18729E+00    rms(broyden)= 0.18648E+00
  rms(prec ) = 0.50410E+00
  weight for this iteration     100.00

 eigenvalues of (default mixing * dielectric matrix)
  average eigenvalue GAMMA=   0.9058
  1.3145  1.3145  0.3250  0.7874  0.7874

 Free energy of the ion-electron system (eV)
  ---------------------------------------------------
  alpha Z        PSCENC =       313.24024960
  Ewald energy   TEWEN  =     -3324.63154527
  -Hartree energ DENC   =     -1210.58864224
  -exchange      EXHF   =         0.00000000
  -V(xc)+E(xc)   XCENC  =       192.75934805
  PAW double counting   =      3480.44520345    -3566.06378083
  entropy T*S    EENTRO =         0.00000000
  eigenvalues    EBANDS =      -518.43475524
  atomic energy  EATOM  =      4601.94837920
  Solvation  Ediel_sol  =         0.00000000
  ---------------------------------------------------
  free energy    TOTEN  =       -31.32554328 eV

  energy without entropy =      -31.32554328  energy(sigma->0) =      -31.32554328


--------------------------------------------------------------------------------------------------------




----------------------------------------- Iteration    1(  11)  ---------------------------------------


    POTLOK:  cpu time    0.0370: real time    0.0375
    SETDIJ:  cpu time    0.0120: real time    0.0120
atom =   1  type =  1  l = 0
 
 onsite density matrix
 
spin component  1
 
  0.9699
 
spin component  2
 
  1.0340
 
 occupancies and eigenvectors
 
  o =  0.9699  v =  1.0000  0.0000      0.0000  0.0000
  o =  1.0340  v =  0.0000  1.0000      0.0000  0.0000
atom =   2  type =  2  l = 2
 
 onsite density matrix
 
spin component  1
 
  1.0029  0.0000  0.0000  0.0000  0.0000
  0.0000  1.0029  0.0000  0.0000  0.0000
  0.0000  0.0000  0.9024  0.0000  0.0000
  0.0000  0.0000  0.0000  1.0029  0.0000
  0.0000  0.0000  0.0000  0.0000  0.9024
 
spin component  2
 
  0.1118  0.0000  0.0000  0.0000  0.0000
  0.0000  0.1118  0.0000  0.0000  0.0000
  0.0000  0.0000  0.2660  0.0000  0.0000
  0.0000  0.0000  0.0000  0.1118  0.0000
  0.0000  0.0000  0.0000  0.0000  0.2660
 
 occupancies and eigenvectors
 
  o =  0.1118  v =  0.0000  0.0000  0.0000  0.0000  0.0000  1.0000  0.0000  0.0000  0.0000  0.0000      0.0000  0.0000  0.0000  0.0000  0.0000  0.0000  0.0000  0.0000  0.0000  0.0000
  o =  0.1118  v =  0.0000  0.0000  0.0000  0.0000  0.0000  0.0000 -0.0832  0.0000  0.9965  0.0000      0.0000  0.0000  0.0000  0.0000  0.0000  0.0000  0.0000  0.0000  0.0000  0.0000
  o =  0.1118  v =  0.0000  0.0000  0.0000  0.0000  0.0000  0.0000 -0.9965  0.0000 -0.0832  0.0000      0.0000  0.0000  0.0000  0.0000  0.0000  0.0000  0.0000  0.0000  0.0000  0.0000
  o =  0.2660  v =  0.0000  0.0000  0.0000  0.0000  0.0000  0.0000  0.0000 -0.9998  0.0000  0.0196      0.0000  0.0000  0.0000  0.0000  0.0000  0.0000  0.0000  0.0000  0.0000  0.0000
  o =  0.2660  v =  0.0000  0.0000  0.0000  0.0000  0.0000  0.0000  0.0000  0.0196  0.0000  0.9998      0.0000  0.0000  0.0000  0.0000  0.0000  0.0000  0.0000  0.0000  0.0000  0.0000
  o =  0.9024  v =  0.0000  0.0000  0.2084  0.0000 -0.9781  0.0000  0.0000  0.0000  0.0000  0.0000      0.0000  0.0000  0.0000  0.0000  0.0000  0.0000  0.0000  0.0000  0.0000  0.0000
  o =  0.9024  v =  0.0000  0.0000 -0.9781  0.0000 -0.2084  0.0000  0.0000  0.0000  0.0000  0.0000      0.0000  0.0000  0.0000  0.0000  0.0000  0.0000  0.0000  0.0000  0.0000  0.0000
  o =  1.0029  v =  0.0000  0.9425  0.0000 -0.3343  0.0000  0.0000  0.0000  0.0000  0.0000  0.0000      0.0000  0.0000  0.0000  0.0000  0.0000  0.0000  0.0000  0.0000  0.0000  0.0000
  o =  1.0029  v =  0.0000  0.3343  0.0000  0.9425  0.0000  0.0000  0.0000  0.0000  0.0000  0.0000      0.0000  0.0000  0.0000  0.0000  0.0000  0.0000  0.0000  0.0000  0.0000  0.0000
  o =  1.0029  v =  1.0000  0.0000  0.0000  0.0000  0.0000  0.0000  0.0000  0.0000  0.0000  0.0000      0.0000  0.0000  0.0000  0.0000  0.0000  0.0000  0.0000  0.0000  0.0000  0.0000
atom =   3  type =  3  l = 0
 
 onsite density matrix
 
spin component  1
 
  0.8964
 
spin component  2
 
  0.9752
 
 occupancies and eigenvectors
 
  o =  0.8964  v =  1.0000  0.0000      0.0000  0.0000
  o =  0.9752  v =  0.0000  1.0000      0.0000  0.0000
atom =   4  type =  3  l = 0
 
 onsite density matrix
 
spin component  1
 
  0.8964
 
spin component  2
 
  0.9752
 
 occupancies and eigenvectors
 
  o =  0.8964  v =  1.0000  0.0000      0.0000  0.0000
  o =  0.9752  v =  0.0000  1.0000      0.0000  0.0000
atom =   5  type =  3  l = 0
 
 onsite density matrix
 
spin component  1
 
  0.8964
 
spin component  2
 
  0.9752
 
 occupancies and eigenvectors
 
  o =  0.8964  v =  1.0000  0.0000      0.0000  0.0000
  o =  0.9752  v =  0.0000  1.0000      0.0000  0.0000
    EDDIAG:  cpu time    0.0690: real time    0.0689
  RMM-DIIS:  cpu time    0.1360: real time    0.1359
    ORTHCH:  cpu time    0.0120: real time    0.0117
 BZINTS: Fermi energy:  3.256753; 42.000000 electrons
         Band energy:-526.531905;  BLOECHL correction: -0.048261
       DOS:  cpu time    0.0120: real time    0.0123
    CHARGE:  cpu time    0.0150: real time    0.0152
    MIXING:  cpu time    0.0010: real time    0.0006
    --------------------------------------------
      LOOP:  cpu time    0.2950: real time    0.2962

 eigenvalue-minimisations  :  1151
 total energy-change (2. order) : 0.5901321E-01  (-0.1961976E-01)
 number of electron      42.0000521 magnetization       4.0694743
 augmentation part       13.0987661 magnetization       3.0055844

 Broyden mixing:
  rms(total) = 0.60376E-01    rms(broyden)= 0.59256E-01
  rms(prec ) = 0.74400E-01
  weight for this iteration     100.00

 eigenvalues of (default mixing * dielectric matrix)
[...]
     10     -10.7868      1.00000
     11      -1.8730      1.00000
     12      -1.0675      1.00000
     13      -0.7874      1.00000
     14      -0.0379      1.00000
     15       0.7896      1.00000
     16       1.0379      1.00000
     17       1.8829      1.00000
     18       1.9740      1.00000
     19       2.4659      1.00000
     20       5.1165      0.00000
     21       5.2410      0.00000
     22       5.3751      0.00000
     23       5.6779      0.00000
     24       6.8864      0.00000
     25      10.6111      0.00000
     26      10.9735      0.00000
     27      11.8375      0.00000
     28      12.5874      0.00000

 k-point     5 :       0.4167    0.2500    0.0833
  band No.  band energies     occupation 
      1     -49.6155      1.00000
      2     -49.6138      1.00000
      3     -49.6122      1.00000
      4     -29.0344      1.00000
      5     -14.7011      1.00000
      6     -13.7952      1.00000
      7     -13.3955      1.00000
      8     -11.1153      1.00000
      9     -10.9058      1.00000
     10     -10.7284      1.00000
     11      -2.2174      1.00000
     12      -1.1673      1.00000
     13      -0.7524      1.00000
     14      -0.6503      1.00000
     15       0.3888      1.00000
     16       1.0007      1.00000
     17       1.6052      1.00000
     18       1.8444      1.00000
     19       2.5732      1.00000
     20       5.1913      0.00000
     21       5.6853      0.00000
     22       5.7275      0.00000
     23       5.7870      0.00000
     24       7.5852      0.00000
     25      11.3500      0.00000
     26      11.9312      0.00000
     27      12.2611      0.00000
     28      12.7161      0.00000

 k-point     6 :       0.4167    0.4167    0.0833
  band No.  band energies     occupation 
      1     -49.6154      1.00000
      2     -49.6153      1.00000
      3     -49.6122      1.00000
      4     -29.0211      1.00000
      5     -14.3103      1.00000
      6     -13.9418      1.00000
      7     -13.6344      1.00000
      8     -11.0668      1.00000
      9     -10.8547      1.00000
     10     -10.8131      1.00000
     11      -2.5636      1.00000
     12      -1.3894      1.00000
     13      -1.3113      1.00000
     14      -0.3804      1.00000
     15       0.2587      1.00000
     16       0.4594      1.00000
     17       1.7003      1.00000
     18       1.7984      1.00000
     19       3.0667      1.00000
     20       5.6856      0.00000
     21       5.7229      0.00000
     22       5.8870      0.00000
     23       5.9321      0.00000
     24       8.3866      0.00000
     25      11.6560      0.00000
     26      11.9651      0.00000
     27      12.9260      0.00000
     28      12.9903      0.00000

 k-point     7 :       0.2500    0.2500    0.2500
  band No.  band energies     occupation 
      1     -49.6139      1.00000
      2     -49.6139      1.00000
      3     -49.6138      1.00000
      4     -29.0354      1.00000
      5     -14.6508      1.00000
      6     -13.5690      1.00000
      7     -13.5690      1.00000
      8     -11.1129      1.00000
      9     -11.1129      1.00000
     10     -10.7383      1.00000
     11      -2.1225      1.00000
     12      -1.0377      1.00000
     13      -1.0377      1.00000
     14      -0.1075      1.00000
     15       0.1980      1.00000
     16       0.1980      1.00000
     17       2.2397      1.00000
     18       2.2397      1.00000
     19       2.6151      1.00000
     20       5.3915      0.00000
     21       5.4743      0.00000
     22       5.4743      0.00000
     23       6.8690      0.00000
     24       6.8690      0.00000
     25      11.1514      0.00000
     26      11.1534      0.00000
     27      11.6144      0.00000
     28      12.7617      0.00000

 k-point     8 :       0.4167    0.2500    0.2500
  band No.  band energies     occupation 
      1     -49.6154      1.00000
      2     -49.6139      1.00000
      3     -49.6137      1.00000
      4     -29.0219      1.00000
      5     -14.4589      1.00000
      6     -13.7644      1.00000
      7     -13.4397      1.00000
      8     -11.2758      1.00000
      9     -10.9934      1.00000
     10     -10.8278      1.00000
     11      -2.4386      1.00000
     12      -1.1789      1.00000
     13      -1.0016      1.00000
     14      -0.6901      1.00000
     15      -0.1535      1.00000
     16       0.2449      1.00000
     17       2.2193      1.00000
     18       2.3768      1.00000
     19       2.7091      1.00000
     20       5.5043      0.00000
     21       5.7971      0.00000
     22       5.8333      0.00000
     23       6.8332      0.00000
     24       7.7542      0.00000
     25      11.6402      0.00000
     26      11.7173      0.00000
     27      11.9018      0.00000
     28      12.4169      0.00000

 k-point     9 :       0.4167    0.4167    0.2500
  band No.  band energies     occupation 
      1     -49.6153      1.00000
      2     -49.6152      1.00000
      3     -49.6136      1.00000
      4     -29.0092      1.00000
      5     -14.0999      1.00000
      6     -13.7756      1.00000
      7     -13.5643      1.00000
      8     -11.3038      1.00000
      9     -11.1250      1.00000
     10     -10.9973      1.00000
     11      -2.7978      1.00000
     12      -1.3791      1.00000
     13      -0.9966      1.00000
     14      -0.9079      1.00000
     15      -0.1532      1.00000
     16      -0.1517      1.00000
     17       2.4649      1.00000
     18       2.5272      1.00000
     19       3.1066      1.00000
     20       5.8653      0.00000
     21       5.8869      0.00000
     22       6.0099      0.00000
     23       7.2106      0.00000
     24       8.3792      0.00000
     25      11.3303      0.00000
     26      11.7262      0.00000
     27      11.7930      0.00000
     28      12.5623      0.00000

 k-point    10 :       0.4167    0.4167    0.4167
  band No.  band energies     occupation 
      1     -49.6152      1.00000
      2     -49.6152      1.00000
      3     -49.6152      1.00000
      4     -28.9973      1.00000
      5     -13.7981      1.00000
      6     -13.5719      1.00000
      7     -13.5719      1.00000
      8     -11.4301      1.00000
      9     -11.4301      1.00000
     10     -11.2837      1.00000
     11      -3.1846      1.00000
     12      -1.3683      1.00000
     13      -1.3683      1.00000
     14      -0.5712      1.00000
     15      -0.4009      1.00000
     16      -0.4009      1.00000
     17       3.0526      1.00000
     18       3.0526      1.00000
     19       3.1869      1.00000
     20       6.0879      0.00000
     21       6.1032      0.00000
     22       6.1032      0.00000
     23       8.3638      0.00000
     24       8.3638      0.00000
     25      10.8932      0.00000
     26      10.9664      0.00000
     27      10.9664      0.00000
     28      13.3514      0.00000


--------------------------------------------------------------------------------------------------------


 soft charge-density along one line, spin component           1
         0         1         2         3         4         5         6         7         8         9
 total charge-density along one line
 
 soft charge-density along one line, spin component           2
         0         1         2         3         4         5         6         7         8         9
 total charge-density along one line
 
 pseudopotential strength for first ion, spin component:           1
-11.552  -7.518   0.000   0.000   0.000   0.000   0.000   0.000
 -7.518  -6.012   0.000   0.000   0.000   0.000   0.000   0.000
  0.000   0.000 -14.539   0.000   0.000   0.097   0.000   0.000
  0.000   0.000   0.000 -14.539   0.000   0.000   0.097   0.000
  0.000   0.000   0.000   0.000 -14.539   0.000   0.000   0.097
  0.000   0.000   0.097   0.000   0.000   0.045   0.000   0.000
  0.000   0.000   0.000   0.097   0.000   0.000   0.045   0.000
  0.000   0.000   0.000   0.000   0.097   0.000   0.000   0.045
  0.000   0.000   0.000   0.000   0.000   0.000   0.000   0.000
  0.000   0.000   0.000   0.000   0.000   0.000   0.000   0.000
  0.000   0.000   0.000   0.000   0.000   0.000   0.000   0.000
  0.000   0.000   0.000   0.000   0.000   0.000   0.000   0.000
  0.000   0.000   0.000   0.000   0.000   0.000   0.000   0.000
  0.000   0.000   0.000   0.000   0.000   0.000   0.000   0.000
  0.000   0.000   0.000   0.000   0.000   0.000   0.000   0.000
  0.000   0.000   0.000   0.000   0.000   0.000   0.000   0.000
  0.000   0.000   0.000   0.000   0.000   0.000   0.000   0.000
  0.000   0.000   0.000   0.000   0.000   0.000   0.000   0.000
 pseudopotential strength for first ion, spin component:           2
-11.557  -7.515   0.000   0.000   0.000   0.000   0.000   0.000
 -7.515  -6.012   0.000   0.000   0.000   0.000   0.000   0.000
  0.000   0.000 -14.537   0.000   0.000   0.097   0.000   0.000
  0.000   0.000   0.000 -14.537   0.000   0.000   0.097   0.000
  0.000   0.000   0.000   0.000 -14.537   0.000   0.000   0.097
  0.000   0.000   0.097   0.000   0.000   0.045   0.000   0.000
  0.000   0.000   0.000   0.097   0.000   0.000   0.045   0.000
  0.000   0.000   0.000   0.000   0.097   0.000   0.000   0.045
  0.000   0.000   0.000   0.000   0.000   0.000   0.000   0.000
  0.000   0.000   0.000   0.000   0.000   0.000   0.000   0.000
  0.000   0.000   0.000   0.000   0.000   0.000   0.000   0.000
  0.000   0.000   0.000   0.000   0.000   0.000   0.000   0.000
  0.000   0.000   0.000   0.000   0.000   0.000   0.000   0.000
  0.000   0.000   0.000   0.000   0.000   0.000   0.000   0.000
  0.000   0.000   0.000   0.000   0.000   0.000   0.000   0.000
  0.000   0.000   0.000   0.000   0.000   0.000   0.000   0.000
  0.000   0.000   0.000   0.000   0.000   0.000   0.000   0.000
  0.000   0.000   0.000   0.000   0.000   0.000   0.000   0.000
 total augmentation occupancy for first ion, spin component:           1
  2.113  -0.241   0.000   0.000   0.000   0.000   0.000   0.000   0.000   0.000   0.000   0.000   0.000   0.000   0.000   0.000
 -0.241   0.510   0.000   0.000   0.000   0.000   0.000   0.000   0.000   0.000   0.000   0.000   0.000   0.000   0.000   0.000
  0.000   0.000   2.027   0.000   0.000   0.087   0.000   0.000   0.000   0.000   0.000   0.000   0.000   0.000   0.000   0.000
  0.000   0.000   0.000   2.027   0.000   0.000   0.087   0.000   0.000   0.000   0.000   0.000   0.000   0.000   0.000   0.000
  0.000   0.000   0.000   0.000   2.027   0.000   0.000   0.087   0.000   0.000   0.000   0.000   0.000   0.000   0.000   0.000
  0.000   0.000   0.087   0.000   0.000   0.343   0.000   0.000   0.000   0.000   0.000   0.000   0.000   0.000   0.000   0.000
  0.000   0.000   0.000   0.087   0.000   0.000   0.343   0.000   0.000   0.000   0.000   0.000   0.000   0.000   0.000   0.000
  0.000   0.000   0.000   0.000   0.087   0.000   0.000   0.343   0.000   0.000   0.000   0.000   0.000   0.000   0.000   0.000
  0.000   0.000   0.000   0.000   0.000   0.000   0.000   0.000   0.103   0.000   0.000   0.000   0.000  -0.494   0.000   0.000
  0.000   0.000   0.000   0.000   0.000   0.000   0.000   0.000   0.000   0.103   0.000   0.000   0.000   0.000  -0.494   0.000
  0.000   0.000   0.000   0.000   0.000   0.000   0.000   0.000   0.000   0.000   0.076   0.000   0.000   0.000   0.000  -0.350
  0.000   0.000   0.000   0.000   0.000   0.000   0.000   0.000   0.000   0.000   0.000   0.103   0.000   0.000   0.000   0.000
  0.000   0.000   0.000   0.000   0.000   0.000   0.000   0.000   0.000   0.000   0.000   0.000   0.076   0.000   0.000   0.000
  0.000   0.000   0.000   0.000   0.000   0.000   0.000   0.000  -0.494   0.000   0.000   0.000   0.000   2.558   0.000   0.000
  0.000   0.000   0.000   0.000   0.000   0.000   0.000   0.000   0.000  -0.494   0.000   0.000   0.000   0.000   2.558   0.000
  0.000   0.000   0.000   0.000   0.000   0.000   0.000   0.000   0.000   0.000  -0.350   0.000   0.000   0.000   0.000   1.698
  0.000   0.000   0.000   0.000   0.000   0.000   0.000   0.000   0.000   0.000   0.000  -0.494   0.000   0.000   0.000   0.000
  0.000   0.000   0.000   0.000   0.000   0.000   0.000   0.000   0.000   0.000   0.000   0.000  -0.350   0.000   0.000   0.000
 total augmentation occupancy for first ion, spin component:           2
  0.004  -0.008   0.000   0.000   0.000   0.000   0.000   0.000   0.000   0.000   0.000   0.000   0.000   0.000   0.000   0.000
 -0.008   0.017   0.000   0.000   0.000   0.000   0.000   0.000   0.000   0.000   0.000   0.000   0.000   0.000   0.000   0.000
  0.000   0.000   0.001   0.000   0.000  -0.002   0.000   0.000   0.000   0.000   0.000   0.000   0.000   0.000   0.000   0.000
  0.000   0.000   0.000   0.001   0.000   0.000  -0.002   0.000   0.000   0.000   0.000   0.000   0.000   0.000   0.000   0.000
  0.000   0.000   0.000   0.000   0.001   0.000   0.000  -0.002   0.000   0.000   0.000   0.000   0.000   0.000   0.000   0.000
  0.000   0.000  -0.002   0.000   0.000   0.007   0.000   0.000   0.000   0.000   0.000   0.000   0.000   0.000   0.000   0.000
  0.000   0.000   0.000  -0.002   0.000   0.000   0.007   0.000   0.000   0.000   0.000   0.000   0.000   0.000   0.000   0.000
  0.000   0.000   0.000   0.000  -0.002   0.000   0.000   0.007   0.000   0.000   0.000   0.000   0.000   0.000   0.000   0.000
  0.000   0.000   0.000   0.000   0.000   0.000   0.000   0.000   0.001   0.000   0.000   0.000   0.000  -0.001   0.000   0.000
  0.000   0.000   0.000   0.000   0.000   0.000   0.000   0.000   0.000   0.001   0.000   0.000   0.000   0.000  -0.001   0.000
  0.000   0.000   0.000   0.000   0.000   0.000   0.000   0.000   0.000   0.000   0.005   0.000   0.000   0.000   0.000  -0.018
  0.000   0.000   0.000   0.000   0.000   0.000   0.000   0.000   0.000   0.000   0.000   0.001   0.000   0.000   0.000   0.000
  0.000   0.000   0.000   0.000   0.000   0.000   0.000   0.000   0.000   0.000   0.000   0.000   0.005   0.000   0.000   0.000
  0.000   0.000   0.000   0.000   0.000   0.000   0.000   0.000  -0.001   0.000   0.000   0.000   0.000  -0.004   0.000   0.000
  0.000   0.000   0.000   0.000   0.000   0.000   0.000   0.000   0.000  -0.001   0.000   0.000   0.000   0.000  -0.004   0.000
  0.000   0.000   0.000   0.000   0.000   0.000   0.000   0.000   0.000   0.000  -0.018   0.000   0.000   0.000   0.000   0.066
  0.000   0.000   0.000   0.000   0.000   0.000   0.000   0.000   0.000   0.000   0.000  -0.001   0.000   0.000   0.000   0.000
  0.000   0.000   0.000   0.000   0.000   0.000   0.000   0.000   0.000   0.000   0.000   0.000  -0.018   0.000   0.000   0.000


------------------------ aborting loop because EDIFF is reached ----------------------------------------


    CHARGE:  cpu time    0.0150: real time    0.0152
    FORLOC:  cpu time    0.0000: real time    0.0005
    FORNL :  cpu time    0.0760: real time    0.0752
    FORCOR:  cpu time    0.0490: real time    0.0493
    FORHAR:  cpu time    0.0020: real time    0.0019
    MIXING:  cpu time    0.0010: real time    0.0008
    OFIELD:  cpu time    0.0000: real time    0.0000

 VOLUME and BASIS-vectors are now :
 -----------------------------------------------------------------------------
  energy-cutoff  :      300.00
  volume of cell :       54.87
      direct lattice vectors                 reciprocal lattice vectors
     3.800000000  0.000000000  0.000000000     0.263157895  0.000000000  0.000000000
     0.000000000  3.800000000  0.000000000     0.000000000  0.263157895  0.000000000
     0.000000000  0.000000000  3.800000000     0.000000000  0.000000000  0.263157895

  length of vectors
     3.800000000  3.800000000  3.800000000     0.263157895  0.263157895  0.263157895


 FORCES acting on ions
    electron-ion (+dipol)            ewald-force                    non-local-force                 convergence-correction
 -----------------------------------------------------------------------------------------------
   0.379E-13 0.119E-11 0.238E-12   0.324E-14 -.445E-14 0.802E-14   0.000E+00 0.000E+00 0.000E+00   -.346E-13 0.282E-15 -.209E-13
   0.197E-12 0.134E-12 -.112E-12   -.596E-14 -.139E-13 -.183E-14   0.000E+00 0.000E+00 0.000E+00   0.126E-13 -.321E-13 -.577E-13
   0.501E-13 -.408E-16 -.255E-11   0.686E-14 0.288E-14 -.196E-14   0.000E+00 0.000E+00 0.000E+00   -.189E-13 -.235E-14 0.370E-14
   0.774E-15 0.591E-13 0.669E-14   -.482E-15 0.109E-13 -.191E-14   0.000E+00 0.000E+00 0.000E+00   0.278E-13 0.592E-14 -.401E-14
   0.615E-14 -.839E-15 0.475E-13   -.451E-14 0.333E-14 0.272E-16   0.000E+00 0.000E+00 0.000E+00   0.137E-13 -.525E-14 0.143E-13
 -----------------------------------------------------------------------------------------------
   0.292E-12 0.139E-11 -.237E-11   -.843E-15 -.131E-14 0.234E-14   0.000E+00 0.000E+00 0.000E+00   0.557E-15 -.335E-13 -.645E-13
 
 
 POSITION                                       TOTAL-FORCE (eV/Angst)
 -----------------------------------------------------------------------------------
      1.90000      1.90000      1.90000         0.000000      0.000000      0.000000
      0.00000      0.00000      0.00000         0.000000      0.000000      0.000000
      1.90000      0.00000      0.00000         0.000000      0.000000      0.000000
      0.00000      1.90000      0.00000         0.000000      0.000000      0.000000
      0.00000      0.00000      1.90000         0.000000      0.000000      0.000000
 -----------------------------------------------------------------------------------
    total drift:                                0.000000      0.000000      0.000000


--------------------------------------------------------------------------------------------------------



  FREE ENERGIE OF THE ION-ELECTRON SYSTEM (eV)
  ---------------------------------------------------
  free  energy   TOTEN  =       -31.27945778 eV

  energy  without entropy=      -31.27945778  energy(sigma->0) =      -31.27945778
 


--------------------------------------------------------------------------------------------------------


    POTLOK:  cpu time    0.0490: real time    0.0493


--------------------------------------------------------------------------------------------------------


 stress matrix after NEB project (eV)
      0.00000      0.00000      0.00000
      0.00000      0.00000      0.00000
      0.00000      0.00000      0.00000
  FORCES: max atom, RMS     0.000000    0.000000
  FORCE total and by dimension    0.000000    0.000000
  Stress total and by dimension    0.000000    0.000000
 Quasi-Newton relaxation of ions (Broydens 2nd method)
  g(Force)  = 0.000E+00   g(Stress)= 0.000E+00

 Reset! Starting new Quasi-Newton update for ions 


--------------------------------------------------------------------------------------------------------


  
 reached required accuracy - stopping structural energy minimisation
     LOOP+:  cpu time    5.0182: real time    5.0557
    4ORBIT:  cpu time    0.0000: real time    0.0000

 total amount of memory used by VASP on root node    31860. kBytes
========================================================================

   base      :      30000. kBytes
   nonlr-proj:        294. kBytes
   fftplans  :        173. kBytes
   grid      :        462. kBytes
   one-center:         62. kBytes
   wavefun   :        869. kBytes
 
  
  
 General timing and accounting informations for this job:
 ========================================================
  
                  Total CPU time used (sec):        6.295
                            User time (sec):        6.123
                          System time (sec):        0.172
                         Elapsed time (sec):        6.452
  
                   Maximum memory used (kb):       34276.
                   Average memory used (kb):           0.
  
                          Minor page faults:         5500
                          Major page faults:            8
                 Voluntary context switches:         1106
