  32  32   0   0
  0.1280000E+03  0.1600000E-08  0.1600000E-08  0.1600000E-08  0.2100000E-14
   3000.00000000000     
  CAR 
 Pt cube particle                        
      1.63866695    -13.73988654  301     -3.67727137      1.00000000
    -13.740  0.0000E+00  0.0000E+00
    -13.689  0.0000E+00  0.0000E+00
    -13.637  0.0000E+00  0.0000E+00
    -13.586  0.0000E+00  0.0000E+00
    -13.535  0.0000E+00  0.0000E+00
    -13.484  0.0000E+00  0.0000E+00
    -13.432  0.0000E+00  0.0000E+00
    -13.381 -0.3288E-27 -0.1675E-28
    -13.330 -0.2181E-25 -0.1125E-26
    -13.279 -0.1129E-23 -0.5851E-25
    -13.227 -0.5146E-22 -0.2675E-23
    -13.176 -0.2059E-20 -0.1074E-21
    -13.125 -0.7234E-19 -0.3787E-20
    -13.073 -0.2229E-17 -0.1172E-18
    -13.022 -0.6026E-16 -0.3184E-17
    -12.971 -0.1428E-14 -0.7587E-16
    -12.920 -0.2903E-13 -0.1553E-14
    -12.868 -0.5231E-12 -0.2818E-13
    -12.817 -0.8316E-11 -0.4515E-12
    -12.766 -0.1156E-09 -0.6338E-11
    -12.715 -0.1406E-08 -0.7792E-10
    -12.663 -0.1494E-07 -0.8387E-09
    -12.612 -0.1387E-06 -0.7899E-08
    -12.561 -0.1123E-05 -0.6507E-07
    -12.510 -0.7929E-05 -0.4686E-06
    -12.458 -0.4871E-04 -0.2947E-05
    -12.407 -0.2600E-03 -0.1617E-04
    -12.356 -0.1202E-02 -0.7732E-04
    -12.305 -0.4803E-02 -0.3215E-03
    -12.253 -0.1649E-01 -0.1160E-02
    -12.202 -0.4829E-01 -0.3612E-02
    -12.151 -0.1191E+00 -0.9659E-02
    -12.100 -0.2418E+00 -0.2193E-01
    -12.048 -0.3842E+00 -0.4139E-01
    -11.997 -0.4086E+00 -0.6203E-01
    -11.946 -0.4316E-01 -0.6405E-01
    -11.894  0.1027E+01 -0.1172E-01
    -11.843  0.2915E+01  0.1364E+00
    -11.792  0.5281E+01  0.4042E+00
    -11.741  0.7321E+01  0.7750E+00
    -11.689  0.8168E+01  0.1188E+01
    -11.638  0.7432E+01  0.1564E+01
    -11.587  0.5471E+01  0.1839E+01
    -11.536  0.3132E+01  0.1997E+01
    -11.484  0.1213E+01  0.2058E+01
    -11.433  0.7731E-01  0.2061E+01
    -11.382 -0.3560E+00  0.2043E+01
    -11.331 -0.3781E+00  0.2024E+01
    -11.279 -0.2561E+00  0.2011E+01
    -11.228 -0.1367E+00  0.2004E+01
    -11.177 -0.6470E-01  0.2001E+01
    -11.126 -0.3622E-01  0.1999E+01
    -11.074 -0.3745E-01  0.1997E+01
    -11.023 -0.5771E-01  0.1994E+01
    -10.972 -0.8684E-01  0.1990E+01
    -10.920 -0.1073E+00  0.1985E+01
    -10.869 -0.8867E-01  0.1980E+01
    -10.818  0.1248E-01  0.1981E+01
    -10.767  0.2493E+00  0.1994E+01
    -10.715  0.6859E+00  0.2029E+01
    -10.664  0.1404E+01  0.2100E+01
    -10.613  0.2497E+01  0.2227E+01
    -10.562  0.4038E+01  0.2431E+01
    -10.510  0.6006E+01  0.2735E+01
    -10.459  0.8231E+01  0.3151E+01
    -10.408  0.1040E+02  0.3677E+01
    -10.357  0.1216E+02  0.4293E+01
    -10.305  0.1322E+02  0.4962E+01
    -10.254  0.1349E+02  0.5645E+01
    -10.203  0.1306E+02  0.6306E+01
    -10.152  0.1219E+02  0.6922E+01
    -10.100  0.1120E+02  0.7488E+01
    -10.049  0.1042E+02  0.8014E+01
     -9.998  0.1007E+02  0.8523E+01
     -9.947  0.1024E+02  0.9041E+01
     -9.895  0.1088E+02  0.9591E+01
     -9.844  0.1185E+02  0.1019E+02
     -9.793  0.1300E+02  0.1085E+02
     -9.741  0.1423E+02  0.1157E+02
     -9.690  0.1550E+02  0.1235E+02
     -9.639  0.1686E+02  0.1321E+02
     -9.588  0.1836E+02  0.1414E+02
     -9.536  0.1998E+02  0.1515E+02
     -9.485  0.2167E+02  0.1624E+02
     -9.434  0.2332E+02  0.1742E+02
     -9.383  0.2486E+02  0.1868E+02
     -9.331  0.2627E+02  0.2001E+02
     -9.280  0.2756E+02  0.2140E+02
     -9.229  0.2876E+02  0.2286E+02
     -9.178  0.2990E+02  0.2437E+02
     -9.126  0.3092E+02  0.2593E+02
     -9.075  0.3171E+02  0.2753E+02
     -9.024  0.3214E+02  0.2916E+02
     -8.973  0.3213E+02  0.3078E+02
     -8.921  0.3172E+02  0.3239E+02
     -8.870  0.3114E+02  0.3396E+02
     -8.819  0.3071E+02  0.3551E+02
     -8.767  0.3078E+02  0.3707E+02
     -8.716  0.3157E+02  0.3866E+02
     -8.665  0.3303E+02  0.4033E+02
     -8.614  0.3484E+02  0.4209E+02
     -8.562  0.3658E+02  0.4394E+02
     -8.511  0.3793E+02  0.4586E+02
     -8.460  0.3877E+02  0.4782E+02
     -8.409  0.3910E+02  0.4980E+02
     -8.357  0.3901E+02  0.5177E+02
     -8.306  0.3858E+02  0.5373E+02
     -8.255  0.3799E+02  0.5565E+02
     -8.204  0.3751E+02  0.5754E+02
     -8.152  0.3741E+02  0.5943E+02
     -8.101  0.3779E+02  0.6134E+02
     -8.050  0.3851E+02  0.6329E+02
     -7.999  0.3931E+02  0.6528E+02
     -7.947  0.4001E+02  0.6730E+02
     -7.896  0.4056E+02  0.6935E+02
     -7.845  0.4106E+02  0.7143E+02
     -7.794  0.4159E+02  0.7353E+02
     -7.742  0.4222E+02  0.7567E+02
     -7.691  0.4294E+02  0.7784E+02
     -7.640  0.4374E+02  0.8005E+02
     -7.588  0.4457E+02  0.8231E+02
     -7.537  0.4534E+02  0.8460E+02
     -7.486  0.4588E+02  0.8692E+02
     -7.435  0.4611E+02  0.8926E+02
     -7.383  0.4608E+02  0.9159E+02
     -7.332  0.4595E+02  0.9391E+02
     -7.281  0.4590E+02  0.9623E+02
     -7.230  0.4606E+02  0.9856E+02
     -7.178  0.4647E+02  0.1009E+03
     -7.127  0.4705E+02  0.1033E+03
     -7.076  0.4761E+02  0.1057E+03
     -7.025  0.4791E+02  0.1081E+03
     -6.973  0.4779E+02  0.1105E+03
     -6.922  0.4732E+02  0.1129E+03
     -6.871  0.4674E+02  0.1153E+03
     -6.820  0.4638E+02  0.1176E+03
     -6.768  0.4637E+02  0.1200E+03
     -6.717  0.4665E+02  0.1223E+03
     -6.666  0.4703E+02  0.1247E+03
     -6.614  0.4731E+02  0.1271E+03
     -6.563  0.4739E+02  0.1295E+03
     -6.512  0.4723E+02  0.1319E+03
     -6.461  0.4683E+02  0.1343E+03
     -6.409  0.4628E+02  0.1366E+03
     -6.358  0.4574E+02  0.1389E+03
     -6.307  0.4530E+02  0.1412E+03
     -6.256  0.4502E+02  0.1435E+03
     -6.204  0.4486E+02  0.1457E+03
     -6.153  0.4478E+02  0.1480E+03
     -6.102  0.4477E+02  0.1503E+03
     -6.051  0.4481E+02  0.1525E+03
     -5.999  0.4488E+02  0.1548E+03
     -5.948  0.4500E+02  0.1571E+03
     -5.897  0.4527E+02  0.1594E+03
     -5.846  0.4587E+02  0.1617E+03
     -5.794  0.4697E+02  0.1641E+03
     -5.743  0.4857E+02  0.1665E+03
     -5.692  0.5049E+02  0.1691E+03
     -5.641  0.5243E+02  0.1717E+03
     -5.589  0.5414E+02  0.1745E+03
     -5.538  0.5551E+02  0.1773E+03
     -5.487  0.5658E+02  0.1801E+03
     -5.435  0.5751E+02  0.1830E+03
     -5.384  0.5847E+02  0.1860E+03
     -5.333  0.5958E+02  0.1890E+03
     -5.282  0.6082E+02  0.1921E+03
     -5.230  0.6213E+02  0.1952E+03
     -5.179  0.6340E+02  0.1984E+03
     -5.128  0.6455E+02  0.2017E+03
     -5.077  0.6562E+02  0.2050E+03
     -5.025  0.6671E+02  0.2084E+03
     -4.974  0.6803E+02  0.2118E+03
     -4.923  0.6978E+02  0.2153E+03
     -4.872  0.7208E+02  0.2190E+03
     -4.820  0.7491E+02  0.2228E+03
     -4.769  0.7803E+02  0.2267E+03
     -4.718  0.8106E+02  0.2308E+03
     -4.667  0.8364E+02  0.2350E+03
     -4.615  0.8557E+02  0.2394E+03
     -4.564  0.8691E+02  0.2438E+03
     -4.513  0.8793E+02  0.2482E+03
     -4.461  0.8888E+02  0.2527E+03
     -4.410  0.8978E+02  0.2572E+03
     -4.359  0.9043E+02  0.2618E+03
     -4.308  0.9055E+02  0.2664E+03
     -4.256  0.9005E+02  0.2709E+03
     -4.205  0.8921E+02  0.2754E+03
     -4.154  0.8861E+02  0.2799E+03
     -4.103  0.8885E+02  0.2844E+03
     -4.051  0.9029E+02  0.2890E+03
     -4.000  0.9274E+02  0.2937E+03
     -3.949  0.9547E+02  0.2985E+03
     -3.898  0.9731E+02  0.3034E+03
     -3.846  0.9712E+02  0.3083E+03
     -3.795  0.9411E+02  0.3131E+03
     -3.744  0.8820E+02  0.3175E+03
     -3.693  0.7986E+02  0.3216E+03
     -3.641  0.6996E+02  0.3251E+03
     -3.590  0.5940E+02  0.3281E+03
     -3.539  0.4906E+02  0.3306E+03
     -3.488  0.3978E+02  0.3326E+03
     -3.436  0.3240E+02  0.3343E+03
     -3.385  0.2752E+02  0.3357E+03
     -3.334  0.2525E+02  0.3369E+03
     -3.282  0.2506E+02  0.3382E+03
     -3.231  0.2598E+02  0.3395E+03
     -3.180  0.2705E+02  0.3409E+03
     -3.129  0.2765E+02  0.3423E+03
     -3.077  0.2764E+02  0.3437E+03
     -3.026  0.2715E+02  0.3451E+03
     -2.975  0.2639E+02  0.3464E+03
     -2.924  0.2542E+02  0.3477E+03
     -2.872  0.2420E+02  0.3489E+03
     -2.821  0.2263E+02  0.3500E+03
     -2.770  0.2063E+02  0.3511E+03
     -2.719  0.1810E+02  0.3520E+03
     -2.667  0.1498E+02  0.3528E+03
     -2.616  0.1131E+02  0.3533E+03
     -2.565  0.7450E+01  0.3537E+03
     -2.514  0.3951E+01  0.3539E+03
     -2.462  0.1432E+01  0.3540E+03
     -2.411  0.3442E+00  0.3540E+03
     -2.360  0.8838E+00  0.3541E+03
     -2.308  0.2998E+01  0.3542E+03
     -2.257  0.6388E+01  0.3545E+03
     -2.206  0.1049E+02  0.3551E+03
     -2.155  0.1450E+02  0.3558E+03
     -2.103  0.1766E+02  0.3567E+03
     -2.052  0.1951E+02  0.3577E+03
     -2.001  0.2012E+02  0.3587E+03
     -1.950  0.1995E+02  0.3597E+03
     -1.898  0.1946E+02  0.3607E+03
     -1.847  0.1885E+02  0.3616E+03
     -1.796  0.1801E+02  0.3625E+03
     -1.745  0.1673E+02  0.3634E+03
     -1.693  0.1493E+02  0.3641E+03
     -1.642  0.1279E+02  0.3648E+03
     -1.591  0.1072E+02  0.3653E+03
     -1.540  0.9219E+01  0.3658E+03
     -1.488  0.8671E+01  0.3662E+03
     -1.437  0.9169E+01  0.3667E+03
     -1.386  0.1047E+02  0.3672E+03
     -1.335  0.1211E+02  0.3678E+03
     -1.283  0.1351E+02  0.3685E+03
     -1.232  0.1428E+02  0.3692E+03
     -1.181  0.1426E+02  0.3700E+03
     -1.129  0.1366E+02  0.3707E+03
     -1.078  0.1289E+02  0.3713E+03
     -1.027  0.1236E+02  0.3719E+03
     -0.976  0.1229E+02  0.3726E+03
     -0.924  0.1279E+02  0.3732E+03
     -0.873  0.1386E+02  0.3739E+03
     -0.822  0.1546E+02  0.3747E+03
     -0.771  0.1744E+02  0.3756E+03
     -0.719  0.1943E+02  0.3766E+03
     -0.668  0.2100E+02  0.3776E+03
     -0.617  0.2178E+02  0.3787E+03
     -0.566  0.2163E+02  0.3798E+03
     -0.514  0.2059E+02  0.3808E+03
     -0.463  0.1873E+02  0.3818E+03
     -0.412  0.1609E+02  0.3826E+03
     -0.361  0.1275E+02  0.3833E+03
     -0.309  0.8963E+01  0.3837E+03
     -0.258  0.5274E+01  0.3840E+03
     -0.207  0.2289E+01  0.3841E+03
     -0.155  0.3768E+00  0.3841E+03
     -0.104 -0.4961E+00  0.3841E+03
     -0.053 -0.6589E+00  0.3841E+03
     -0.002 -0.4997E+00  0.3840E+03
      0.050 -0.2874E+00  0.3840E+03
      0.101 -0.1346E+00  0.3840E+03
      0.152 -0.5287E-01  0.3840E+03
      0.203 -0.1768E-01  0.3840E+03
      0.255 -0.5072E-02  0.3840E+03
      0.306 -0.1256E-02  0.3840E+03
      0.357 -0.2693E-03  0.3840E+03
      0.408 -0.5013E-04  0.3840E+03
      0.460 -0.8121E-05  0.3840E+03
      0.511 -0.1146E-05  0.3840E+03
      0.562 -0.1411E-06  0.3840E+03
      0.613 -0.1516E-07  0.3840E+03
      0.665 -0.1424E-08  0.3840E+03
      0.716 -0.1169E-09  0.3840E+03
      0.767 -0.8395E-11  0.3840E+03
      0.818 -0.5267E-12  0.3840E+03
      0.870 -0.3128E-13  0.3840E+03
      0.921  0.0000E+00  0.3840E+03
      0.972  0.0000E+00  0.3840E+03
      1.024  0.0000E+00  0.3840E+03
      1.075  0.0000E+00  0.3840E+03
      1.126  0.0000E+00  0.3840E+03
      1.177  0.0000E+00  0.3840E+03
      1.229  0.0000E+00  0.3840E+03
      1.280  0.0000E+00  0.3840E+03
      1.331  0.0000E+00  0.3840E+03
      1.382  0.0000E+00  0.3840E+03
      1.434  0.0000E+00  0.3840E+03
      1.485  0.0000E+00  0.3840E+03
      1.536  0.0000E+00  0.3840E+03
      1.587  0.0000E+00  0.3840E+03
      1.639  0.0000E+00  0.3840E+03
      1.63898861    -13.74011540  301     -3.67735478      1.00000000
    -13.740  0.0000E+00  0.0000E+00
    -13.689  0.0000E+00  0.0000E+00
    -13.638  0.0000E+00  0.0000E+00
    -13.586  0.0000E+00  0.0000E+00
    -13.535  0.0000E+00  0.0000E+00
    -13.484  0.0000E+00  0.0000E+00
    -13.433  0.0000E+00  0.0000E+00
    -13.381 -0.3440E-30 -0.1763E-31
    -13.330 -0.2060E-28 -0.1074E-29
    -13.279 -0.1096E-26 -0.5728E-28
    -13.227 -0.5109E-25 -0.2676E-26
    -13.176 -0.2084E-23 -0.1095E-24
    -13.125 -0.7442E-22 -0.3924E-23
    -13.074 -0.2326E-20 -0.1231E-21
    -13.022 -0.6360E-19 -0.3384E-20
    -12.971 -0.1522E-17 -0.8139E-19
    -12.920 -0.3040E-16 -0.1640E-17
    -12.869 -0.5653E-15 -0.3062E-16
    -12.817 -0.9000E-14 -0.4920E-15
    -12.766 -0.1253E-12 -0.6916E-14
    -12.715 -0.1523E-11 -0.8500E-13
    -12.664 -0.1615E-10 -0.9127E-12
    -12.612 -0.1492E-09 -0.8561E-11
    -12.561 -0.1200E-08 -0.7009E-10
    -12.510 -0.8395E-08 -0.5005E-09
    -12.459 -0.5098E-07 -0.3114E-08
    -12.407 -0.2682E-06 -0.1686E-07
    -12.356 -0.1219E-05 -0.7933E-07
    -12.305 -0.4763E-05 -0.3235E-06
    -12.253 -0.1592E-04 -0.1140E-05
    -12.202 -0.4510E-04 -0.3452E-05
    -12.151 -0.1066E-03 -0.8914E-05
    -12.100 -0.2037E-03 -0.1935E-04
    -12.048 -0.2927E-03 -0.3436E-04
    -11.997 -0.2385E-03 -0.4659E-04
    -11.946  0.1839E-03 -0.3716E-04
    -11.895  0.1175E-02  0.2309E-04
    -11.843  0.2700E-02  0.1615E-03
    -11.792  0.4342E-02  0.3841E-03
    -11.741  0.5433E-02  0.6626E-03
    -11.690  0.5450E-02  0.9420E-03
    -11.638  0.4383E-02  0.1167E-02
    -11.587  0.2747E-02  0.1308E-02
    -11.536  0.1212E-02  0.1370E-02
    -11.485  0.2033E-03  0.1380E-02
    -11.433 -0.2329E-03  0.1368E-02
    -11.382 -0.2940E-03  0.1353E-02
    -11.331 -0.2066E-03  0.1342E-02
    -11.279 -0.1088E-03  0.1337E-02
    -11.228 -0.4632E-04  0.1335E-02
    -11.177 -0.1645E-04  0.1334E-02
    -11.126 -0.5025E-05  0.1333E-02
    -11.074 -0.1711E-05  0.1333E-02
    -11.023 -0.2216E-05  0.1333E-02
    -10.972 -0.7343E-05  0.1333E-02
    -10.921 -0.2355E-04  0.1332E-02
    -10.869 -0.6470E-04  0.1328E-02
    -10.818 -0.1494E-03  0.1321E-02
    -10.767 -0.2829E-03  0.1306E-02
    -10.716 -0.4158E-03  0.1285E-02
    -10.664 -0.3946E-03  0.1265E-02
    -10.613  0.4251E-04  0.1267E-02
    -10.562  0.1169E-02  0.1327E-02
    -10.511  0.3091E-02  0.1485E-02
    -10.459  0.5605E-02  0.1772E-02
    -10.408  0.8226E-02  0.2194E-02
    -10.357  0.1038E-01  0.2726E-02
    -10.305  0.1157E-01  0.3319E-02
    -10.254  0.1154E-01  0.3911E-02
    -10.203  0.1027E-01  0.4437E-02
    -10.152  0.8106E-02  0.4853E-02
    -10.100  0.5773E-02  0.5149E-02
    -10.049  0.4108E-02  0.5359E-02
     -9.998  0.3624E-02  0.5545E-02
     -9.947  0.4213E-02  0.5761E-02
     -9.895  0.5282E-02  0.6032E-02
     -9.844  0.6224E-02  0.6351E-02
     -9.793  0.6794E-02  0.6699E-02
     -9.742  0.7113E-02  0.7064E-02
     -9.690  0.7469E-02  0.7447E-02
     -9.639  0.8179E-02  0.7866E-02
     -9.588  0.9572E-02  0.8357E-02
     -9.536  0.1192E-01  0.8968E-02
     -9.485  0.1523E-01  0.9749E-02
     -9.434  0.1900E-01  0.1072E-01
     -9.383  0.2235E-01  0.1187E-01
     -9.331  0.2444E-01  0.1312E-01
     -9.280  0.2501E-01  0.1440E-01
     -9.229  0.2452E-01  0.1566E-01
     -9.178  0.2361E-01  0.1687E-01
     -9.126  0.2251E-01  0.1802E-01
     -9.075  0.2091E-01  0.1910E-01
     -9.024  0.1853E-01  0.2005E-01
     -8.973  0.1576E-01  0.2085E-01
     -8.921  0.1360E-01  0.2155E-01
     -8.870  0.1307E-01  0.2222E-01
     -8.819  0.1461E-01  0.2297E-01
     -8.768  0.1786E-01  0.2389E-01
     -8.716  0.2200E-01  0.2501E-01
     -8.665  0.2610E-01  0.2635E-01
     -8.614  0.2933E-01  0.2786E-01
     -8.562  0.3116E-01  0.2945E-01
     -8.511  0.3153E-01  0.3107E-01
     -8.460  0.3083E-01  0.3265E-01
     -8.409  0.2968E-01  0.3417E-01
     -8.357  0.2852E-01  0.3563E-01
     -8.306  0.2735E-01  0.3704E-01
     -8.255  0.2582E-01  0.3836E-01
     -8.204  0.2380E-01  0.3958E-01
     -8.152  0.2170E-01  0.4069E-01
     -8.101  0.2036E-01  0.4174E-01
     -8.050  0.2038E-01  0.4278E-01
     -7.999  0.2167E-01  0.4389E-01
     -7.947  0.2368E-01  0.4510E-01
     -7.896  0.2589E-01  0.4643E-01
     -7.845  0.2809E-01  0.4787E-01
     -7.794  0.3022E-01  0.4942E-01
     -7.742  0.3215E-01  0.5107E-01
     -7.691  0.3364E-01  0.5279E-01
     -7.640  0.3447E-01  0.5456E-01
     -7.588  0.3452E-01  0.5633E-01
     -7.537  0.3378E-01  0.5806E-01
     -7.486  0.3238E-01  0.5972E-01
     -7.435  0.3073E-01  0.6130E-01
     -7.383  0.2959E-01  0.6281E-01
     -7.332  0.2961E-01  0.6433E-01
     -7.281  0.3088E-01  0.6592E-01
     -7.230  0.3276E-01  0.6759E-01
     -7.178  0.3437E-01  0.6936E-01
     -7.127  0.3510E-01  0.7116E-01
     -7.076  0.3471E-01  0.7294E-01
     -7.025  0.3312E-01  0.7463E-01
     -6.973  0.3041E-01  0.7619E-01
     -6.922  0.2715E-01  0.7758E-01
     -6.871  0.2457E-01  0.7884E-01
     -6.820  0.2391E-01  0.8007E-01
     -6.768  0.2558E-01  0.8138E-01
     -6.717  0.2873E-01  0.8285E-01
     -6.666  0.3187E-01  0.8449E-01
     -6.614  0.3384E-01  0.8622E-01
     -6.563  0.3432E-01  0.8798E-01
     -6.512  0.3372E-01  0.8971E-01
     -6.461  0.3271E-01  0.9139E-01
     -6.409  0.3193E-01  0.9302E-01
     -6.358  0.3182E-01  0.9466E-01
     -6.307  0.3249E-01  0.9632E-01
     -6.256  0.3356E-01  0.9804E-01
     -6.204  0.3424E-01  0.9980E-01
     -6.153  0.3378E-01  0.1015E+00
     -6.102  0.3204E-01  0.1032E+00
     -6.051  0.2970E-01  0.1047E+00
     -5.999  0.2778E-01  0.1061E+00
     -5.948  0.2693E-01  0.1075E+00
     -5.897  0.2705E-01  0.1089E+00
     -5.846  0.2763E-01  0.1103E+00
     -5.794  0.2829E-01  0.1118E+00
     -5.743  0.2913E-01  0.1132E+00
     -5.692  0.3061E-01  0.1148E+00
     -5.640  0.3303E-01  0.1165E+00
     -5.589  0.3611E-01  0.1184E+00
     -5.538  0.3903E-01  0.1204E+00
     -5.487  0.4099E-01  0.1225E+00
     -5.435  0.4180E-01  0.1246E+00
     -5.384  0.4196E-01  0.1268E+00
     -5.333  0.4218E-01  0.1289E+00
     -5.282  0.4285E-01  0.1311E+00
     -5.230  0.4378E-01  0.1334E+00
     -5.179  0.4445E-01  0.1356E+00
     -5.128  0.4438E-01  0.1379E+00
     -5.077  0.4352E-01  0.1401E+00
     -5.025  0.4239E-01  0.1423E+00
     -4.974  0.4184E-01  0.1445E+00
     -4.923  0.4261E-01  0.1466E+00
     -4.871  0.4480E-01  0.1489E+00
     -4.820  0.4761E-01  0.1514E+00
     -4.769  0.4973E-01  0.1539E+00
     -4.718  0.5019E-01  0.1565E+00
     -4.666  0.4919E-01  0.1590E+00
     -4.615  0.4814E-01  0.1615E+00
     -4.564  0.4868E-01  0.1640E+00
     -4.513  0.5138E-01  0.1666E+00
     -4.461  0.5536E-01  0.1695E+00
     -4.410  0.5890E-01  0.1725E+00
     -4.359  0.6066E-01  0.1756E+00
     -4.308  0.6039E-01  0.1787E+00
     -4.256  0.5875E-01  0.1817E+00
     -4.205  0.5676E-01  0.1846E+00
     -4.154  0.5512E-01  0.1874E+00
     -4.103  0.5409E-01  0.1902E+00
     -4.051  0.5369E-01  0.1930E+00
     -4.000  0.5392E-01  0.1957E+00
     -3.949  0.5477E-01  0.1985E+00
     -3.897  0.5593E-01  0.2014E+00
     -3.846  0.5679E-01  0.2043E+00
     -3.795  0.5658E-01  0.2072E+00
     -3.744  0.5465E-01  0.2100E+00
     -3.692  0.5083E-01  0.2126E+00
     -3.641  0.4555E-01  0.2150E+00
     -3.590  0.3973E-01  0.2170E+00
     -3.539  0.3436E-01  0.2187E+00
     -3.487  0.3010E-01  0.2203E+00
     -3.436  0.2696E-01  0.2217E+00
     -3.385  0.2449E-01  0.2229E+00
     -3.334  0.2216E-01  0.2241E+00
     -3.282  0.1977E-01  0.2251E+00
     -3.231  0.1757E-01  0.2260E+00
     -3.180  0.1606E-01  0.2268E+00
     -3.129  0.1565E-01  0.2276E+00
     -3.077  0.1641E-01  0.2284E+00
     -3.026  0.1798E-01  0.2294E+00
     -2.975  0.1961E-01  0.2304E+00
     -2.923  0.2037E-01  0.2314E+00
     -2.872  0.1968E-01  0.2324E+00
     -2.821  0.1764E-01  0.2333E+00
     -2.770  0.1493E-01  0.2341E+00
     -2.718  0.1222E-01  0.2347E+00
     -2.667  0.9755E-02  0.2352E+00
     -2.616  0.7394E-02  0.2356E+00
     -2.565  0.4985E-02  0.2359E+00
     -2.513  0.2655E-02  0.2360E+00
     -2.462  0.7245E-03  0.2360E+00
     -2.411 -0.5174E-03  0.2360E+00
     -2.360 -0.8914E-03  0.2360E+00
     -2.308 -0.2542E-03  0.2359E+00
     -2.257  0.1499E-02  0.2360E+00
     -2.206  0.4238E-02  0.2362E+00
     -2.155  0.7416E-02  0.2366E+00
     -2.103  0.1023E-01  0.2371E+00
     -2.052  0.1209E-01  0.2378E+00
     -2.001  0.1293E-01  0.2384E+00
     -1.949  0.1309E-01  0.2391E+00
     -1.898  0.1285E-01  0.2398E+00
     -1.847  0.1237E-01  0.2404E+00
     -1.796  0.1188E-01  0.2410E+00
     -1.744  0.1169E-01  0.2416E+00
     -1.693  0.1175E-01  0.2422E+00
     -1.642  0.1145E-01  0.2428E+00
     -1.591  0.1001E-01  0.2433E+00
     -1.539  0.7334E-02  0.2437E+00
     -1.488  0.4307E-02  0.2439E+00
     -1.437  0.2325E-02  0.2440E+00
     -1.386  0.2370E-02  0.2441E+00
     -1.334  0.4402E-02  0.2444E+00
     -1.283  0.7415E-02  0.2447E+00
     -1.232  0.1004E-01  0.2453E+00
     -1.181  0.1134E-01  0.2458E+00
     -1.129  0.1124E-01  0.2464E+00
     -1.078  0.1040E-01  0.2469E+00
     -1.027  0.9670E-02  0.2474E+00
     -0.975  0.9529E-02  0.2479E+00
     -0.924  0.1002E-01  0.2484E+00
     -0.873  0.1087E-01  0.2490E+00
     -0.822  0.1179E-01  0.2496E+00
     -0.770  0.1257E-01  0.2503E+00
     -0.719  0.1321E-01  0.2509E+00
     -0.668  0.1378E-01  0.2516E+00
     -0.617  0.1421E-01  0.2524E+00
     -0.565  0.1427E-01  0.2531E+00
     -0.514  0.1370E-01  0.2538E+00
     -0.463  0.1239E-01  0.2544E+00
     -0.412  0.1054E-01  0.2550E+00
     -0.360  0.8390E-02  0.2554E+00
     -0.309  0.6146E-02  0.2557E+00
     -0.258  0.3963E-02  0.2559E+00
     -0.207  0.2061E-02  0.2560E+00
     -0.155  0.6703E-03  0.2561E+00
     -0.104 -0.1079E-03  0.2561E+00
     -0.053 -0.3740E-03  0.2560E+00
     -0.001 -0.3450E-03  0.2560E+00
      0.050 -0.2208E-03  0.2560E+00
      0.101 -0.1113E-03  0.2560E+00
      0.152 -0.4626E-04  0.2560E+00
      0.204 -0.1616E-04  0.2560E+00
      0.255 -0.4807E-05  0.2560E+00
      0.306 -0.1225E-05  0.2560E+00
      0.357 -0.2691E-06  0.2560E+00
      0.409 -0.5109E-07  0.2560E+00
      0.460 -0.8407E-08  0.2560E+00
      0.511 -0.1201E-08  0.2560E+00
      0.562 -0.1493E-09  0.2560E+00
      0.614 -0.1615E-10  0.2560E+00
      0.665 -0.1523E-11  0.2560E+00
      0.716 -0.1253E-12  0.2560E+00
      0.768 -0.8998E-14  0.2560E+00
      0.819 -0.5660E-15  0.2560E+00
      0.870 -0.3465E-16  0.2560E+00
      0.921  0.0000E+00  0.2560E+00
      0.973  0.0000E+00  0.2560E+00
      1.024  0.0000E+00  0.2560E+00
      1.075  0.0000E+00  0.2560E+00
      1.126  0.0000E+00  0.2560E+00
      1.178  0.0000E+00  0.2560E+00
      1.229  0.0000E+00  0.2560E+00
      1.280  0.0000E+00  0.2560E+00
      1.331  0.0000E+00  0.2560E+00
      1.383  0.0000E+00  0.2560E+00
      1.434  0.0000E+00  0.2560E+00
      1.485  0.0000E+00  0.2560E+00
      1.536  0.0000E+00  0.2560E+00
      1.588  0.0000E+00  0.2560E+00
      1.639  0.0000E+00  0.2560E+00
