   32   32 1500    1
  0.1280000E+03  0.1600000E-08  0.1600000E-08  0.1600000E-08  0.2100000E-14
   3000.00000000000     
  CAR 
 Pt cube particle                        
    320      1    192
 
  0.0000000E+00  0.0000000E+00  0.0000000E+00  0.1000000E+01
    1      -11.740115   1.000000
    2      -10.423108   1.000000
    3      -10.302109   1.000000
    4      -10.192546   1.000000
    5       -9.901558   1.000000
    6       -9.712869   1.000000
    7       -9.559529   1.000000
    8       -9.453563   1.000000
    9       -9.395319   1.000000
   10       -9.330481   1.000000
   11       -9.328814   1.000000
   12       -9.261229   1.000000
   13       -9.165944   1.000000
   14       -9.113191   1.000000
   15       -9.081233   1.000000
   16       -9.014011   1.000000
   17       -8.879237   1.000000
   18       -8.773314   1.000000
   19       -8.739844   1.000000
   20       -8.664840   1.000000
   21       -8.616042   1.000000
   22       -8.587710   1.000000
   23       -8.566701   1.000000
   24       -8.506612   1.000000
   25       -8.451595   1.000000
   26       -8.422395   1.000000
   27       -8.378035   1.000000
   28       -8.299923   1.000000
   29       -8.253494   1.000000
   30       -8.241760   1.000000
   31       -8.183259   1.000000
   32       -8.057032   1.000000
   33       -8.013662   1.000000
   34       -7.983593   1.000000
   35       -7.908011   1.000000
   36       -7.859293   1.000000
   37       -7.799113   1.000000
   38       -7.796968   1.000000
   39       -7.716866   1.000000
   40       -7.697793   1.000000
   41       -7.653755   1.000000
   42       -7.635199   1.000000
   43       -7.572070   1.000000
   44       -7.529008   1.000000
   45       -7.504954   1.000000
   46       -7.460485   1.000000
   47       -7.435335   1.000000
   48       -7.366767   1.000000
   49       -7.292111   1.000000
   50       -7.260554   1.000000
   51       -7.245892   1.000000
   52       -7.202718   1.000000
   53       -7.158218   1.000000
   54       -7.141794   1.000000
   55       -7.054880   1.000000
   56       -7.038942   1.000000
   57       -7.019262   1.000000
   58       -6.954132   1.000000
   59       -6.950283   1.000000
   60       -6.846613   1.000000
   61       -6.758192   1.000000
   62       -6.739261   1.000000
   63       -6.687792   1.000000
   64       -6.673757   1.000000
   65       -6.635734   1.000000
   66       -6.577681   1.000000
   67       -6.536370   1.000000
   68       -6.512749   1.000000
   69       -6.470693   1.000000
   70       -6.420511   1.000000
   71       -6.377807   1.000000
   72       -6.335360   1.000000
   73       -6.294607   1.000000
   74       -6.239911   1.000000
   75       -6.209541   1.000000
   76       -6.183483   1.000000
   77       -6.144796   1.000000
   78       -6.114221   1.000000
   79       -6.071109   1.000000
   80       -5.985085   1.000000
   81       -5.941735   1.000000
   82       -5.913443   1.000000
   83       -5.859358   1.000000
   84       -5.796406   1.000000
   85       -5.780899   1.000000
   86       -5.714231   1.000000
   87       -5.684523   1.000000
   88       -5.623091   1.000000
   89       -5.574913   1.000000
   90       -5.557992   1.000000
   91       -5.528035   1.000000
   92       -5.508521   1.000000
   93       -5.491306   1.000000
   94       -5.420984   1.000000
   95       -5.411728   1.000000
   96       -5.373161   1.000000
   97       -5.319420   1.000000
   98       -5.309056   1.000000
   99       -5.297050   1.000000
  100       -5.221712   1.000000
  101       -5.213619   1.000000
  102       -5.186727   1.000000
  103       -5.164445   1.000000
  104       -5.135950   1.000000
  105       -5.082360   1.000000
  106       -5.066648   1.000000
  107       -5.053741   1.000000
  108       -5.006454   1.000000
  109       -4.973570   1.000000
  110       -4.916690   1.000000
  111       -4.899547   1.000000
  112       -4.875106   1.000000
  113       -4.867335   1.000000
  114       -4.796830   1.000000
  115       -4.776007   1.000000
  116       -4.759168   1.000000
  117       -4.746538   1.000000
  118       -4.717859   1.000000
  119       -4.712718   1.000000
  120       -4.696208   1.000000
  121       -4.633205   1.000000
  122       -4.612193   1.000000
  123       -4.557057   1.000000
  124       -4.529812   1.000000
  125       -4.511707   1.000000
  126       -4.504067   1.000000
  127       -4.466885   1.000000
  128       -4.448905   1.000000
  129       -4.429345   1.000001
  130       -4.407983   1.000002
  131       -4.392232   1.000003
  132       -4.359035   1.000008
  133       -4.334628   1.000017
  134       -4.324039   1.000024
  135       -4.309469   1.000037
  136       -4.282996   1.000080
  137       -4.252383   1.000185
  138       -4.247933   1.000208
  139       -4.190166   1.000866
  140       -4.168455   1.001409
  141       -4.142573   1.002430
  142       -4.126001   1.003373
  143       -4.111374   1.004442
  144       -4.101677   1.005292
  145       -4.080879   1.007549
  146       -4.011048   1.019941
  147       -3.991403   1.024443
  148       -3.985600   1.025782
  149       -3.952101   1.032688
  150       -3.923627   1.035451
  151       -3.914805   1.035230
  152       -3.909070   1.034721
  153       -3.850179   1.004682
  154       -3.832736   0.983900
  155       -3.803712   0.933768
  156       -3.778963   0.874482
  157       -3.771329   0.853105
  158       -3.764221   0.831929
  159       -3.728889   0.710240
  160       -3.695352   0.575813
  161       -3.668314   0.461788
  162       -3.622394   0.276891
  163       -3.603329   0.209288
  164       -3.587482   0.158968
  165       -3.509352   0.000412
  166       -3.464620  -0.030536
  167       -3.413820  -0.034289
  168       -3.378554  -0.027918
  169       -3.303110  -0.011848
  170       -3.243096  -0.004423
  171       -3.126547  -0.000346
  172       -3.075031  -0.000088
  173       -2.946903  -0.000002
  174       -2.933302  -0.000001
  175       -2.897458   0.000000
  176       -2.771870   0.000000
  177       -2.649316   0.000000
  178       -2.122629   0.000000
  179       -2.066168   0.000000
  180       -1.895238   0.000000
  181       -1.866401   0.000000
  182       -1.649881   0.000000
  183       -1.640903   0.000000
  184       -1.260103   0.000000
  185       -1.197967   0.000000
  186       -1.037501   0.000000
  187       -0.897314   0.000000
  188       -0.789773   0.000000
  189       -0.693713   0.000000
  190       -0.571210   0.000000
  191       -0.524551   0.000000
  192       -0.361011   0.000000
