 running on    8 total cores
 distrk:  each k-point on    8 cores,    1 groups
 distr:  one band on    4 cores,    2 groups
 using from now: INCAR     
 vasp.5.4.1 24Jun15 (build Jan 06 2016 13:19:48) gamma-only                     
  
 POSCAR found :  1 types and      32 ions
 scaLAPACK will be used
 LDA part: xc-table for Ceperly-Alder, standard interpolation
 POSCAR found :  1 types and      32 ions

 ----------------------------------------------------------------------------- 
|                                                                             |
|           W    W    AA    RRRRR   N    N  II  N    N   GGGG   !!!           |
|           W    W   A  A   R    R  NN   N  II  NN   N  G    G  !!!           |
|           W    W  A    A  R    R  N N  N  II  N N  N  G       !!!           |
|           W WW W  AAAAAA  RRRRR   N  N N  II  N  N N  G  GGG   !            |
|           WW  WW  A    A  R   R   N   NN  II  N   NN  G    G                |
|           W    W  A    A  R    R  N    N  II  N    N   GGGG   !!!           |
|                                                                             |
|      VASP found     96 degrees of freedom                                   |
|      the temperature will equal 2*E(kin)/ (degrees of freedom)              |
|      this differs from previous releases, where T was 2*E(kin)/(3 NIONS).   |
|      The new definition is more consistent                                  |
|                                                                             |
 ----------------------------------------------------------------------------- 

 POSCAR, INCAR and KPOINTS ok, starting setup
 WARNING: small aliasing (wrap around) errors must be expected
 FFT: planning ...
 WAVECAR not read
 prediction of wavefunctions initialized - no I/O
 entering main loop
       N       E                     dE             d eps       ncg     rms          rms(c)
DAV:   1     0.237682811651E+04    0.23768E+04   -0.77303E+04   392   0.711E+02
DAV:   2     0.318853937767E+03   -0.20580E+04   -0.18934E+04   544   0.231E+02
DAV:   3    -0.112848547350E+03   -0.43170E+03   -0.40401E+03   488   0.108E+02
DAV:   4    -0.152425205236E+03   -0.39577E+02   -0.34084E+02   576   0.353E+01
DAV:   5    -0.155253541657E+03   -0.28283E+01   -0.22767E+01   576   0.713E+00    0.197E+01
RMM:   6    -0.159188900369E+03   -0.39354E+01   -0.59296E+01   400   0.191E+01    0.229E+01
RMM:   7    -0.149438598103E+03    0.97503E+01   -0.17532E+01   389   0.102E+01    0.149E+01
RMM:   8    -0.147616291192E+03    0.18223E+01   -0.82081E+00   398   0.638E+00    0.103E+01
RMM:   9    -0.146346458915E+03    0.12698E+01   -0.20171E+00   395   0.319E+00    0.895E+00
RMM:  10    -0.145583581884E+03    0.76288E+00   -0.46459E-01   404   0.153E+00    0.464E+00
RMM:  11    -0.145363654430E+03    0.21993E+00   -0.23631E-01   412   0.105E+00    0.240E+00
RMM:  12    -0.145415580588E+03   -0.51926E-01   -0.21195E-01   397   0.106E+00    0.342E+00
RMM:  13    -0.145348081299E+03    0.67499E-01   -0.10769E-01   398   0.754E-01    0.235E+00
RMM:  14    -0.145431355410E+03   -0.83274E-01   -0.10876E-01   396   0.763E-01    0.385E+00
RMM:  15    -0.145353710052E+03    0.77645E-01   -0.72938E-02   397   0.627E-01    0.250E+00
RMM:  16    -0.145287557802E+03    0.66152E-01   -0.42935E-02   385   0.515E-01    0.779E-01
RMM:  17    -0.145282547056E+03    0.50107E-02   -0.16220E-02   390   0.299E-01    0.795E-01
RMM:  18    -0.145280970998E+03    0.15761E-02   -0.70123E-03   408   0.183E-01    0.743E-01
RMM:  19    -0.145277734498E+03    0.32365E-02   -0.42756E-03   388   0.154E-01    0.426E-01
RMM:  20    -0.145277765028E+03   -0.30530E-04   -0.22668E-03   391   0.108E-01    0.329E-01
RMM:  21    -0.145279040731E+03   -0.12757E-02   -0.15436E-03   384   0.914E-02    0.206E-01
RMM:  22    -0.145281221360E+03   -0.21806E-02   -0.93809E-04   370   0.698E-02    0.114E-01
RMM:  23    -0.145290449458E+03   -0.92281E-02   -0.15851E-03   355   0.750E-02    0.196E-01
RMM:  24    -0.145293795330E+03   -0.33459E-02   -0.69317E-04   297   0.498E-02    0.120E-01
RMM:  25    -0.145296590582E+03   -0.27953E-02   -0.42604E-04   260   0.430E-02    0.874E-02
RMM:  26    -0.145301368836E+03   -0.47783E-02   -0.81939E-04   301   0.473E-02    0.776E-02
RMM:  27    -0.145303380858E+03   -0.20120E-02   -0.45038E-04   265   0.346E-02    0.561E-02
RMM:  28    -0.145305541258E+03   -0.21604E-02   -0.58534E-04   280   0.379E-02    0.584E-02
RMM:  29    -0.145306140556E+03   -0.59930E-03   -0.15658E-04   224   0.266E-02    0.418E-02
RMM:  30    -0.145306927948E+03   -0.78739E-03   -0.91468E-05   216   0.219E-02    0.218E-02
RMM:  31    -0.145307341684E+03   -0.41374E-03   -0.41634E-05   214   0.167E-02    0.234E-02
RMM:  32    -0.145307678465E+03   -0.33678E-03   -0.22011E-05   200   0.120E-02    0.112E-02
RMM:  33    -0.145307791252E+03   -0.11279E-03   -0.93358E-06   136   0.788E-03    0.713E-03
RMM:  34    -0.145308040304E+03   -0.24905E-03   -0.29217E-05   187   0.102E-02    0.674E-03
RMM:  35    -0.145308067882E+03   -0.27578E-04   -0.83071E-06   111   0.624E-03
    1 T=  2991. E= -.13293604E+03 F= -.14530807E+03 E0= -.14512803E+03  EK= 0.12372E+02 SP= 0.00E+00 SK= 0.00E+00
 bond charge predicted
       N       E                     dE             d eps       ncg     rms          rms(c)
DAV:   1    -0.145231332962E+03    0.76707E-01   -0.32314E+01   392   0.111E+01    0.831E-01
RMM:   2    -0.145370539438E+03   -0.13921E+00   -0.56910E-01   385   0.185E+00    0.319E+00
RMM:   3    -0.145291984694E+03    0.78555E-01   -0.77458E-02   398   0.678E-01    0.131E+00
RMM:   4    -0.145281456582E+03    0.10528E-01   -0.24684E-02   388   0.378E-01    0.877E-01
RMM:   5    -0.145276271271E+03    0.51853E-02   -0.65134E-03   389   0.182E-01    0.568E-01
RMM:   6    -0.145273216472E+03    0.30548E-02   -0.23889E-03   385   0.113E-01    0.290E-01
RMM:   7    -0.145274175160E+03   -0.95869E-03   -0.36126E-03   388   0.132E-01    0.447E-01
RMM:   8    -0.145274650610E+03   -0.47545E-03   -0.36112E-03   394   0.126E-01    0.532E-01
RMM:   9    -0.145272549192E+03    0.21014E-02   -0.23530E-03   386   0.108E-01    0.178E-01
RMM:  10    -0.145272373623E+03    0.17557E-03   -0.76104E-04   356   0.677E-02    0.121E-01
RMM:  11    -0.145272381924E+03   -0.83012E-05   -0.18983E-04   214   0.381E-02
    2 T=  2989. E= -.13290800E+03 F= -.14527238E+03 E0= -.14509401E+03  EK= 0.12364E+02 SP= 0.00E+00 SK= 0.00E+00
Information: wavefunction orthogonal band  189  0.8918
Information: wavefunction orthogonal band  192  0.8854
 bond charge predicted
 prediction of wavefunctions
       N       E                     dE             d eps       ncg     rms          rms(c)
DAV:   1    -0.145222400628E+03    0.49973E-01   -0.15956E+01   400   0.781E+00    0.586E-01
RMM:   2    -0.145309100267E+03   -0.86700E-01   -0.30918E-01   385   0.153E+00    0.253E+00
RMM:   3    -0.145255565115E+03    0.53535E-01   -0.48732E-02   402   0.534E-01    0.902E-01
RMM:   4    -0.145251110312E+03    0.44548E-02   -0.13242E-02   394   0.288E-01    0.666E-01
RMM:   5    -0.145247835608E+03    0.32747E-02   -0.34286E-03   392   0.133E-01    0.377E-01
RMM:   6    -0.145246587121E+03    0.12485E-02   -0.10614E-03   383   0.745E-02    0.251E-01
RMM:   7    -0.145246491033E+03    0.96088E-04   -0.49866E-04   289   0.519E-02
    3 T=  3296. E= -.13161449E+03 F= -.14524649E+03 E0= -.14506911E+03  EK= 0.13632E+02 SP= 0.00E+00 SK= 0.00E+00
 bond charge predicted
 prediction of wavefunctions
       N       E                     dE             d eps       ncg     rms          rms(c)
DAV:   1    -0.145181267721E+03    0.65319E-01   -0.14256E+01   392   0.739E+00    0.777E-01
RMM:   2    -0.145364569113E+03   -0.18330E+00   -0.33232E-01   385   0.143E+00    0.438E+00
RMM:   3    -0.145221180673E+03    0.14339E+00   -0.66689E-02   386   0.660E-01    0.139E+00
RMM:   4    -0.145203464380E+03    0.17716E-01   -0.23264E-02   386   0.377E-01    0.617E-01
RMM:   5    -0.145201555954E+03    0.19084E-02   -0.64441E-03   396   0.178E-01    0.514E-01
RMM:   6    -0.145199181190E+03    0.23748E-02   -0.19744E-03   389   0.987E-02    0.295E-01
RMM:   7    -0.145199288103E+03   -0.10691E-03   -0.10094E-03   386   0.733E-02    0.334E-01
RMM:   8    -0.145199197084E+03    0.91019E-04   -0.15222E-03   388   0.850E-02    0.303E-01
RMM:   9    -0.145199054551E+03    0.14253E-03   -0.21070E-03   384   0.986E-02    0.293E-01
RMM:  10    -0.145198329794E+03    0.72476E-03   -0.77241E-04   366   0.636E-02    0.912E-02
RMM:  11    -0.145198356989E+03   -0.27195E-04   -0.16959E-04   214   0.362E-02
    4 T=  3105. E= -.13235613E+03 F= -.14519836E+03 E0= -.14502289E+03  EK= 0.12842E+02 SP= 0.00E+00 SK= 0.00E+00
 bond charge predicted
 prediction of wavefunctions
       N       E                     dE             d eps       ncg     rms          rms(c)
DAV:   1    -0.145158671463E+03    0.39658E-01   -0.84265E+00   392   0.572E+00    0.459E-01
RMM:   2    -0.145196650277E+03   -0.37979E-01   -0.18682E-01   385   0.125E+00    0.154E+00
RMM:   3    -0.145177918985E+03    0.18731E-01   -0.28666E-02   440   0.383E-01    0.768E-01
RMM:   4    -0.145174262357E+03    0.36566E-02   -0.65032E-03   387   0.205E-01    0.452E-01
RMM:   5    -0.145172880454E+03    0.13819E-02   -0.20049E-03   388   0.103E-01    0.323E-01
RMM:   6    -0.145171980989E+03    0.89946E-03   -0.64963E-04   347   0.609E-02    0.174E-01
RMM:   7    -0.145172177191E+03   -0.19620E-03   -0.80484E-04   378   0.641E-02    0.251E-01
RMM:   8    -0.145172395184E+03   -0.21799E-03   -0.91494E-04   387   0.661E-02    0.299E-01
RMM:   9    -0.145171657333E+03    0.73785E-03   -0.13044E-03   385   0.785E-02    0.993E-02
RMM:  10    -0.145171604324E+03    0.53009E-04   -0.22274E-04   215   0.428E-02
    5 T=  2634. E= -.13427644E+03 F= -.14517160E+03 E0= -.14499940E+03  EK= 0.10895E+02 SP= 0.00E+00 SK= 0.00E+00
 bond charge predicted
 prediction of wavefunctions
       N       E                     dE             d eps       ncg     rms          rms(c)
DAV:   1    -0.145200061954E+03   -0.28405E-01   -0.12997E+01   384   0.709E+00    0.577E-01
RMM:   2    -0.145267067139E+03   -0.67005E-01   -0.25547E-01   385   0.134E+00    0.218E+00
RMM:   3    -0.145225386566E+03    0.41681E-01   -0.39808E-02   394   0.486E-01    0.826E-01
RMM:   4    -0.145221453951E+03    0.39326E-02   -0.10949E-02   390   0.255E-01    0.598E-01
RMM:   5    -0.145219488609E+03    0.19653E-02   -0.31495E-03   395   0.127E-01    0.417E-01
RMM:   6    -0.145217908153E+03    0.15805E-02   -0.12803E-03   385   0.850E-02    0.210E-01
RMM:   7    -0.145217949238E+03   -0.41085E-04   -0.98337E-04   385   0.707E-02
    6 T=  2272. E= -.13582208E+03 F= -.14521795E+03 E0= -.14504756E+03  EK= 0.93959E+01 SP= 0.00E+00 SK= 0.00E+00
 bond charge predicted
 prediction of wavefunctions
       N       E                     dE             d eps       ncg     rms          rms(c)
DAV:   1    -0.145258611794E+03   -0.40704E-01   -0.63713E+00   400   0.499E+00    0.823E-01
RMM:   2    -0.145596513302E+03   -0.33790E+00   -0.24923E-01   395   0.122E+00    0.586E+00
RMM:   3    -0.145286859651E+03    0.30965E+00   -0.78265E-02   387   0.719E-01    0.127E+00
RMM:   4    -0.145267791310E+03    0.19068E-01   -0.24986E-02   387   0.413E-01    0.616E-01
RMM:   5    -0.145265443050E+03    0.23483E-02   -0.60651E-03   412   0.165E-01    0.462E-01
RMM:   6    -0.145264276172E+03    0.11669E-02   -0.17677E-03   395   0.930E-02    0.318E-01
RMM:   7    -0.145263454923E+03    0.82125E-03   -0.89967E-04   385   0.694E-02    0.190E-01
RMM:   8    -0.145263509851E+03   -0.54928E-04   -0.77195E-04   373   0.661E-02
    7 T=  2103. E= -.13656426E+03 F= -.14526351E+03 E0= -.14509362E+03  EK= 0.86992E+01 SP= 0.00E+00 SK= 0.00E+00
 bond charge predicted
 prediction of wavefunctions
       N       E                     dE             d eps       ncg     rms          rms(c)
DAV:   1    -0.145280550188E+03   -0.17095E-01   -0.41824E+00   384   0.401E+00    0.804E-01
RMM:   2    -0.145717590028E+03   -0.43704E+00   -0.22842E-01   403   0.114E+00    0.700E+00
RMM:   3    -0.145300456121E+03    0.41713E+00   -0.87453E-02   387   0.760E-01    0.113E+00
RMM:   4    -0.145284835612E+03    0.15621E-01   -0.25945E-02   387   0.417E-01    0.513E-01
RMM:   5    -0.145283166028E+03    0.16696E-02   -0.62931E-03   416   0.163E-01    0.369E-01
RMM:   6    -0.145282830942E+03    0.33509E-03   -0.15541E-03   406   0.841E-02    0.344E-01
RMM:   7    -0.145281848460E+03    0.98248E-03   -0.64536E-04   330   0.595E-02    0.142E-01
RMM:   8    -0.145281799128E+03    0.49332E-04   -0.44051E-04   280   0.539E-02
    8 T=  2132. E= -.13646325E+03 F= -.14528180E+03 E0= -.14511218E+03  EK= 0.88185E+01 SP= 0.00E+00 SK= 0.00E+00
 bond charge predicted
 prediction of wavefunctions
       N       E                     dE             d eps       ncg     rms          rms(c)
DAV:   1    -0.145262358872E+03    0.19490E-01   -0.40721E+00   384   0.406E+00    0.634E-01
RMM:   2    -0.145471066421E+03   -0.20871E+00   -0.17203E-01   392   0.109E+00    0.455E+00
RMM:   3    -0.145280253205E+03    0.19081E+00   -0.48439E-02   385   0.574E-01    0.952E-01
RMM:   4    -0.145268418127E+03    0.11835E-01   -0.15590E-02   386   0.326E-01    0.406E-01
RMM:   5    -0.145267213030E+03    0.12051E-02   -0.35656E-03   396   0.132E-01    0.277E-01
RMM:   6    -0.145266821230E+03    0.39180E-03   -0.81311E-04   352   0.607E-02    0.230E-01
RMM:   7    -0.145266424819E+03    0.39641E-03   -0.26662E-04   232   0.421E-02    0.124E-01
RMM:   8    -0.145266436340E+03   -0.11522E-04   -0.36445E-04   255   0.512E-02
    9 T=  2027. E= -.13688130E+03 F= -.14526644E+03 E0= -.14509747E+03  EK= 0.83851E+01 SP= 0.00E+00 SK= 0.00E+00
 bond charge predicted
 prediction of wavefunctions
       N       E                     dE             d eps       ncg     rms          rms(c)
DAV:   1    -0.145219460771E+03    0.46964E-01   -0.66002E+00   384   0.508E+00    0.555E-01
RMM:   2    -0.145375485000E+03   -0.15602E+00   -0.16984E-01   388   0.103E+00    0.411E+00
RMM:   3    -0.145236895937E+03    0.13859E+00   -0.38598E-02   385   0.508E-01    0.785E-01
RMM:   4    -0.145229480913E+03    0.74150E-02   -0.13796E-02   387   0.300E-01    0.409E-01
RMM:   5    -0.145228305193E+03    0.11757E-02   -0.27492E-03   401   0.116E-01    0.312E-01
RMM:   6    -0.145227603413E+03    0.70178E-03   -0.73728E-04   348   0.601E-02    0.205E-01
RMM:   7    -0.145227375419E+03    0.22799E-03   -0.33122E-04   244   0.478E-02    0.173E-01
RMM:   8    -0.145227430766E+03   -0.55347E-04   -0.69218E-04   376   0.645E-02
   10 T=  2287. E= -.13576589E+03 F= -.14522743E+03 E0= -.14505801E+03  EK= 0.94615E+01 SP= 0.00E+00 SK= 0.00E+00
 bond charge predicted
 prediction of wavefunctions
       N       E                     dE             d eps       ncg     rms          rms(c)
DAV:   1    -0.145225107096E+03    0.22683E-02   -0.15201E+01   384   0.763E+00    0.667E-01
RMM:   2    -0.145358843584E+03   -0.13374E+00   -0.29675E-01   385   0.133E+00    0.355E+00
RMM:   3    -0.145257905906E+03    0.10094E+00   -0.49574E-02   387   0.544E-01    0.103E+00
RMM:   4    -0.145248393781E+03    0.95121E-02   -0.15791E-02   389   0.315E-01    0.642E-01
RMM:   5    -0.145245934061E+03    0.24597E-02   -0.46188E-03   388   0.156E-01    0.439E-01
RMM:   6    -0.145244457188E+03    0.14769E-02   -0.15180E-03   389   0.864E-02    0.316E-01
RMM:   7    -0.145243969236E+03    0.48795E-03   -0.79928E-04   369   0.655E-02    0.247E-01
RMM:   8    -0.145244109763E+03   -0.14053E-03   -0.15247E-03   384   0.888E-02    0.265E-01
RMM:   9    -0.145244079046E+03    0.30718E-04   -0.18670E-03   385   0.922E-02    0.278E-01
RMM:  10    -0.145243437288E+03    0.64176E-03   -0.66593E-04   352   0.585E-02    0.943E-02
RMM:  11    -0.145243441393E+03   -0.41044E-05   -0.15190E-04   213   0.366E-02
   11 T=  2615. E= -.13442757E+03 F= -.14524344E+03 E0= -.14507543E+03  EK= 0.10816E+02 SP= 0.00E+00 SK= 0.00E+00
 bond charge predicted
 prediction of wavefunctions
       N       E                     dE             d eps       ncg     rms          rms(c)
DAV:   1    -0.145267475201E+03   -0.24038E-01   -0.12132E+01   384   0.683E+00    0.635E-01
RMM:   2    -0.145372170663E+03   -0.10470E+00   -0.27099E-01   385   0.136E+00    0.295E+00
RMM:   3    -0.145297721221E+03    0.74449E-01   -0.45349E-02   386   0.522E-01    0.108E+00
RMM:   4    -0.145286576822E+03    0.11144E-01   -0.14477E-02   385   0.309E-01    0.530E-01
RMM:   5    -0.145284446816E+03    0.21300E-02   -0.39472E-03   390   0.146E-01    0.346E-01
RMM:   6    -0.145283575759E+03    0.87106E-03   -0.10414E-03   392   0.695E-02    0.264E-01
RMM:   7    -0.145283236368E+03    0.33939E-03   -0.43215E-04   278   0.487E-02    0.224E-01
RMM:   8    -0.145283354625E+03   -0.11826E-03   -0.10954E-03   386   0.774E-02    0.256E-01
RMM:   9    -0.145283109960E+03    0.24467E-03   -0.19148E-03   385   0.913E-02    0.223E-01
RMM:  10    -0.145282669877E+03    0.44008E-03   -0.63327E-04   348   0.580E-02    0.808E-02
RMM:  11    -0.145282680275E+03   -0.10398E-04   -0.15084E-04   213   0.354E-02
   12 T=  2861. E= -.13344974E+03 F= -.14528268E+03 E0= -.14511682E+03  EK= 0.11833E+02 SP= 0.00E+00 SK= 0.00E+00
 bond charge predicted
 prediction of wavefunctions
       N       E                     dE             d eps       ncg     rms          rms(c)
DAV:   1    -0.145338289404E+03   -0.55620E-01   -0.10261E+01   384   0.626E+00    0.700E-01
RMM:   2    -0.145535573178E+03   -0.19728E+00   -0.26290E-01   385   0.140E+00    0.440E+00
RMM:   3    -0.145368451073E+03    0.16712E+00   -0.58549E-02   385   0.614E-01    0.103E+00
RMM:   4    -0.145354770906E+03    0.13680E-01   -0.19080E-02   385   0.359E-01    0.481E-01
RMM:   5    -0.145353328904E+03    0.14420E-02   -0.39074E-03   393   0.143E-01    0.390E-01
RMM:   6    -0.145352218955E+03    0.11099E-02   -0.10860E-03   383   0.726E-02    0.279E-01
RMM:   7    -0.145351754210E+03    0.46475E-03   -0.53500E-04   300   0.557E-02    0.194E-01
RMM:   8    -0.145351792451E+03   -0.38241E-04   -0.10017E-03   386   0.735E-02    0.212E-01
RMM:   9    -0.145351589790E+03    0.20266E-03   -0.13196E-03   384   0.762E-02    0.178E-01
RMM:  10    -0.145351332358E+03    0.25743E-03   -0.38566E-04   263   0.483E-02    0.692E-02
RMM:  11    -0.145351352285E+03   -0.19927E-04   -0.16596E-04   213   0.408E-02
   13 T=  2619. E= -.13451643E+03 F= -.14535135E+03 E0= -.14518683E+03  EK= 0.10835E+02 SP= 0.00E+00 SK= 0.00E+00
 bond charge predicted
 prediction of wavefunctions
       N       E                     dE             d eps       ncg     rms          rms(c)
DAV:   1    -0.145363308686E+03   -0.11976E-01   -0.56073E+00   384   0.451E+00    0.447E-01
RMM:   2    -0.145406692477E+03   -0.43384E-01   -0.13235E-01   385   0.994E-01    0.194E+00
RMM:   3    -0.145377815408E+03    0.28877E-01   -0.23586E-02   388   0.373E-01    0.759E-01
RMM:   4    -0.145373105395E+03    0.47100E-02   -0.67331E-03   386   0.207E-01    0.422E-01
RMM:   5    -0.145372024669E+03    0.10807E-02   -0.20480E-03   389   0.105E-01    0.304E-01
RMM:   6    -0.145371111772E+03    0.91290E-03   -0.57443E-04   316   0.578E-02    0.154E-01
RMM:   7    -0.145371090470E+03    0.21301E-04   -0.23748E-04   219   0.435E-02
   14 T=  3170. E= -.13225756E+03 F= -.14537109E+03 E0= -.14520767E+03  EK= 0.13114E+02 SP= 0.00E+00 SK= 0.00E+00
 bond charge predicted
 prediction of wavefunctions
       N       E                     dE             d eps       ncg     rms          rms(c)
DAV:   1    -0.145279441369E+03    0.91670E-01   -0.23649E+01   384   0.947E+00    0.829E-01
RMM:   2    -0.145476439561E+03   -0.19700E+00   -0.46426E-01   385   0.162E+00    0.429E+00
RMM:   3    -0.145335791918E+03    0.14065E+00   -0.76624E-02   386   0.706E-01    0.150E+00
RMM:   4    -0.145312966951E+03    0.22825E-01   -0.28042E-02   386   0.403E-01    0.642E-01
RMM:   5    -0.145310758109E+03    0.22088E-02   -0.69348E-03   396   0.189E-01    0.550E-01
RMM:   6    -0.145308105339E+03    0.26528E-02   -0.21291E-03   391   0.991E-02    0.311E-01
RMM:   7    -0.145307981176E+03    0.12416E-03   -0.11116E-03   399   0.729E-02    0.343E-01
RMM:   8    -0.145308015920E+03   -0.34743E-04   -0.16909E-03   387   0.935E-02    0.341E-01
RMM:   9    -0.145307076922E+03    0.93900E-03   -0.36629E-03   385   0.125E-01    0.176E-01
RMM:  10    -0.145306846161E+03    0.23076E-03   -0.73492E-04   354   0.639E-02    0.105E-01
RMM:  11    -0.145306828189E+03    0.17972E-04   -0.18386E-04   213   0.376E-02
   15 T=  3090. E= -.13252403E+03 F= -.14530683E+03 E0= -.14514646E+03  EK= 0.12783E+02 SP= 0.00E+00 SK= 0.00E+00
 bond charge predicted
 prediction of wavefunctions
       N       E                     dE             d eps       ncg     rms          rms(c)
DAV:   1    -0.145283550113E+03    0.23296E-01   -0.11480E+01   384   0.662E+00    0.597E-01
RMM:   2    -0.145366370149E+03   -0.82820E-01   -0.25018E-01   385   0.135E+00    0.263E+00
RMM:   3    -0.145310167937E+03    0.56202E-01   -0.42732E-02   389   0.516E-01    0.883E-01
RMM:   4    -0.145305030394E+03    0.51375E-02   -0.12198E-02   388   0.279E-01    0.642E-01
RMM:   5    -0.145301956908E+03    0.30735E-02   -0.35631E-03   387   0.141E-01    0.373E-01
RMM:   6    -0.145300524024E+03    0.14329E-02   -0.11870E-03   384   0.809E-02    0.206E-01
RMM:   7    -0.145300730546E+03   -0.20652E-03   -0.66383E-04   337   0.589E-02    0.286E-01
RMM:   8    -0.145300735917E+03   -0.53710E-05   -0.12561E-03   392   0.763E-02    0.293E-01
RMM:   9    -0.145300206356E+03    0.52956E-03   -0.14098E-03   385   0.824E-02    0.185E-01
RMM:  10    -0.145299928178E+03    0.27818E-03   -0.52077E-04   305   0.551E-02    0.830E-02
RMM:  11    -0.145299910235E+03    0.17943E-04   -0.17129E-04   211   0.398E-02
   16 T=  3247. E= -.13186971E+03 F= -.14529991E+03 E0= -.14514102E+03  EK= 0.13430E+02 SP= 0.00E+00 SK= 0.00E+00
 bond charge predicted
 prediction of wavefunctions
       N       E                     dE             d eps       ncg     rms          rms(c)
DAV:   1    -0.145293280601E+03    0.66476E-02   -0.14378E+01   384   0.746E+00    0.593E-01
RMM:   2    -0.145374739484E+03   -0.81459E-01   -0.28322E-01   385   0.147E+00    0.259E+00
RMM:   3    -0.145326484504E+03    0.48255E-01   -0.45206E-02   407   0.508E-01    0.979E-01
RMM:   4    -0.145318056678E+03    0.84278E-02   -0.14263E-02   385   0.310E-01    0.526E-01
RMM:   5    -0.145315623437E+03    0.24332E-02   -0.32080E-03   388   0.130E-01    0.380E-01
RMM:   6    -0.145314462115E+03    0.11613E-02   -0.10056E-03   385   0.732E-02    0.258E-01
RMM:   7    -0.145314367778E+03    0.94336E-04   -0.60860E-04   324   0.595E-02
   17 T=  2870. E= -.13344450E+03 F= -.14531437E+03 E0= -.14515628E+03  EK= 0.11870E+02 SP= 0.00E+00 SK= 0.00E+00
 bond charge predicted
 prediction of wavefunctions
       N       E                     dE             d eps       ncg     rms          rms(c)
DAV:   1    -0.145296198579E+03    0.18264E-01   -0.12620E+01   384   0.698E+00    0.776E-01
RMM:   2    -0.145457631193E+03   -0.16143E+00   -0.31555E-01   386   0.139E+00    0.378E+00
RMM:   3    -0.145336837335E+03    0.12079E+00   -0.59991E-02   385   0.615E-01    0.149E+00
RMM:   4    -0.145313450265E+03    0.23387E-01   -0.23751E-02   385   0.393E-01    0.497E-01
RMM:   5    -0.145311824689E+03    0.16256E-02   -0.53338E-03   396   0.164E-01    0.459E-01
RMM:   6    -0.145310331601E+03    0.14931E-02   -0.14776E-03   396   0.838E-02    0.299E-01
RMM:   7    -0.145309879063E+03    0.45254E-03   -0.77830E-04   365   0.640E-02    0.243E-01
RMM:   8    -0.145309935800E+03   -0.56737E-04   -0.12487E-03   387   0.830E-02    0.257E-01
RMM:   9    -0.145309484627E+03    0.45117E-03   -0.21574E-03   385   0.959E-02    0.157E-01
RMM:  10    -0.145309258401E+03    0.22623E-03   -0.46625E-04   294   0.527E-02    0.927E-02
RMM:  11    -0.145309244902E+03    0.13499E-04   -0.14642E-04   212   0.374E-02
   18 T=  2739. E= -.13398023E+03 F= -.14530924E+03 E0= -.14515409E+03  EK= 0.11329E+02 SP= 0.00E+00 SK= 0.00E+00
 bond charge predicted
 prediction of wavefunctions
       N       E                     dE             d eps       ncg     rms          rms(c)
DAV:   1    -0.145303074818E+03    0.61836E-02   -0.52567E+00   384   0.451E+00    0.398E-01
RMM:   2    -0.145339916295E+03   -0.36841E-01   -0.13349E-01   385   0.108E+00    0.171E+00
RMM:   3    -0.145317431855E+03    0.22484E-01   -0.21226E-02   410   0.340E-01    0.639E-01
RMM:   4    -0.145314457184E+03    0.29747E-02   -0.62562E-03   385   0.207E-01    0.425E-01
RMM:   5    -0.145313144048E+03    0.13131E-02   -0.16834E-03   385   0.100E-01    0.265E-01
RMM:   6    -0.145312567036E+03    0.57701E-03   -0.53195E-04   300   0.577E-02    0.177E-01
RMM:   7    -0.145312427935E+03    0.13910E-03   -0.23710E-04   218   0.451E-02    0.157E-01
RMM:   8    -0.145312428559E+03   -0.62398E-06   -0.61745E-04   330   0.583E-02
   19 T=  2917. E= -.13324811E+03 F= -.14531243E+03 E0= -.14515984E+03  EK= 0.12064E+02 SP= 0.00E+00 SK= 0.00E+00
 bond charge predicted
 prediction of wavefunctions
       N       E                     dE             d eps       ncg     rms          rms(c)
DAV:   1    -0.145299684269E+03    0.12744E-01   -0.99537E+00   384   0.622E+00    0.574E-01
RMM:   2    -0.145394447655E+03   -0.94763E-01   -0.23428E-01   385   0.130E+00    0.276E+00
RMM:   3    -0.145329005843E+03    0.65442E-01   -0.37717E-02   389   0.478E-01    0.111E+00
RMM:   4    -0.145315786860E+03    0.13219E-01   -0.14632E-02   385   0.314E-01    0.345E-01
RMM:   5    -0.145314478894E+03    0.13080E-02   -0.28722E-03   394   0.122E-01    0.280E-01
RMM:   6    -0.145313903289E+03    0.57560E-03   -0.58732E-04   310   0.497E-02    0.210E-01
RMM:   7    -0.145313731167E+03    0.17212E-03   -0.46729E-04   286   0.555E-02    0.186E-01
RMM:   8    -0.145313919535E+03   -0.18837E-03   -0.97427E-04   387   0.697E-02    0.260E-01
RMM:   9    -0.145313462796E+03    0.45674E-03   -0.12893E-03   384   0.764E-02    0.168E-01
RMM:  10    -0.145313301075E+03    0.16172E-03   -0.32538E-04   244   0.455E-02    0.113E-01
RMM:  11    -0.145313228443E+03    0.72632E-04   -0.18154E-04   211   0.411E-02
   20 T=  2627. E= -.13444679E+03 F= -.14531323E+03 E0= -.14516378E+03  EK= 0.10866E+02 SP= 0.00E+00 SK= 0.00E+00
 bond charge predicted
 prediction of wavefunctions
       N       E                     dE             d eps       ncg     rms          rms(c)
DAV:   1    -0.145299343816E+03    0.13957E-01   -0.53557E+00   384   0.468E+00    0.471E-01
RMM:   2    -0.145353186117E+03   -0.53842E-01   -0.14959E-01   385   0.113E+00    0.216E+00
RMM:   3    -0.145317432809E+03    0.35753E-01   -0.25426E-02   387   0.394E-01    0.832E-01
RMM:   4    -0.145310417626E+03    0.70152E-02   -0.88082E-03   385   0.251E-01    0.400E-01
RMM:   5    -0.145309196154E+03    0.12215E-02   -0.20342E-03   390   0.107E-01    0.290E-01
RMM:   6    -0.145308429030E+03    0.76712E-03   -0.55813E-04   317   0.563E-02    0.180E-01
RMM:   7    -0.145308292949E+03    0.13608E-03   -0.26381E-04   226   0.464E-02    0.165E-01
RMM:   8    -0.145308243735E+03    0.49214E-04   -0.66821E-04   373   0.603E-02
   21 T=  2452. E= -.13516555E+03 F= -.14530824E+03 E0= -.14516172E+03  EK= 0.10143E+02 SP= 0.00E+00 SK= 0.00E+00
 bond charge predicted
 prediction of wavefunctions
       N       E                     dE             d eps       ncg     rms          rms(c)
DAV:   1    -0.145280386183E+03    0.27907E-01   -0.12962E+01   384   0.696E+00    0.585E-01
RMM:   2    -0.145352835795E+03   -0.72450E-01   -0.25066E-01   385   0.124E+00    0.234E+00
RMM:   3    -0.145310000033E+03    0.42836E-01   -0.36305E-02   388   0.463E-01    0.106E+00
RMM:   4    -0.145300600418E+03    0.93996E-02   -0.11964E-02   385   0.273E-01    0.557E-01
RMM:   5    -0.145298383392E+03    0.22170E-02   -0.36138E-03   387   0.145E-01    0.377E-01
RMM:   6    -0.145297121149E+03    0.12622E-02   -0.10472E-03   381   0.733E-02    0.239E-01
RMM:   7    -0.145296956381E+03    0.16477E-03   -0.46736E-04   289   0.512E-02    0.235E-01
RMM:   8    -0.145297033663E+03   -0.77282E-04   -0.12319E-03   386   0.782E-02    0.248E-01
RMM:   9    -0.145296795435E+03    0.23823E-03   -0.18254E-03   384   0.898E-02    0.211E-01
RMM:  10    -0.145296499611E+03    0.29582E-03   -0.41249E-04   281   0.519E-02    0.116E-01
RMM:  11    -0.145296417168E+03    0.82443E-04   -0.18739E-04   213   0.425E-02
   22 T=  2283. E= -.13585421E+03 F= -.14529642E+03 E0= -.14515230E+03  EK= 0.94422E+01 SP= 0.00E+00 SK= 0.00E+00
 bond charge predicted
 prediction of wavefunctions
       N       E                     dE             d eps       ncg     rms          rms(c)
DAV:   1    -0.145263658569E+03    0.32841E-01   -0.49709E+00   384   0.441E+00    0.408E-01
RMM:   2    -0.145313210632E+03   -0.49552E-01   -0.11383E-01   386   0.913E-01    0.214E+00
RMM:   3    -0.145277546061E+03    0.35665E-01   -0.21049E-02   387   0.376E-01    0.702E-01
RMM:   4    -0.145272930965E+03    0.46151E-02   -0.68877E-03   386   0.215E-01    0.361E-01
RMM:   5    -0.145271818520E+03    0.11124E-02   -0.16571E-03   389   0.963E-02    0.241E-01
RMM:   6    -0.145271252529E+03    0.56599E-03   -0.40753E-04   267   0.500E-02    0.142E-01
RMM:   7    -0.145271215292E+03    0.37237E-04   -0.24128E-04   220   0.450E-02
   23 T=  2361. E= -.13550487E+03 F= -.14527122E+03 E0= -.14512914E+03  EK= 0.97663E+01 SP= 0.00E+00 SK= 0.00E+00
 bond charge predicted
 prediction of wavefunctions
       N       E                     dE             d eps       ncg     rms          rms(c)
DAV:   1    -0.145240682542E+03    0.30570E-01   -0.77203E+00   384   0.543E+00    0.684E-01
RMM:   2    -0.145382234956E+03   -0.14155E+00   -0.21264E-01   385   0.118E+00    0.371E+00
RMM:   3    -0.145266036338E+03    0.11620E+00   -0.46568E-02   385   0.548E-01    0.116E+00
RMM:   4    -0.145252542759E+03    0.13494E-01   -0.14680E-02   385   0.312E-01    0.541E-01
RMM:   5    -0.145250749248E+03    0.17935E-02   -0.45606E-03   390   0.160E-01    0.398E-01
RMM:   6    -0.145249593173E+03    0.11561E-02   -0.13890E-03   390   0.849E-02    0.292E-01
RMM:   7    -0.145249072531E+03    0.52064E-03   -0.61849E-04   327   0.612E-02    0.209E-01
RMM:   8    -0.145248996228E+03    0.76303E-04   -0.86990E-04   383   0.704E-02
   24 T=  2889. E= -.13330033E+03 F= -.14524900E+03 E0= -.14510837E+03  EK= 0.11949E+02 SP= 0.00E+00 SK= 0.00E+00
 bond charge predicted
 prediction of wavefunctions
       N       E                     dE             d eps       ncg     rms          rms(c)
DAV:   1    -0.145178207081E+03    0.70865E-01   -0.98694E+00   384   0.614E+00    0.795E-01
RMM:   2    -0.145469623840E+03   -0.29142E+00   -0.30280E-01   391   0.135E+00    0.561E+00
RMM:   3    -0.145210232076E+03    0.25939E+00   -0.68258E-02   385   0.664E-01    0.121E+00
RMM:   4    -0.145192948158E+03    0.17284E-01   -0.25609E-02   387   0.417E-01    0.661E-01
RMM:   5    -0.145190068282E+03    0.28799E-02   -0.55611E-03   407   0.162E-01    0.465E-01
RMM:   6    -0.145188576700E+03    0.14916E-02   -0.18647E-03   388   0.100E-01    0.299E-01
RMM:   7    -0.145187908796E+03    0.66790E-03   -0.75682E-04   354   0.626E-02    0.207E-01
RMM:   8    -0.145187799398E+03    0.10940E-03   -0.68782E-04   360   0.644E-02    0.198E-01
RMM:   9    -0.145188233105E+03   -0.43371E-03   -0.80098E-04   377   0.650E-02    0.298E-01
RMM:  10    -0.145187505392E+03    0.72771E-03   -0.10542E-03   383   0.693E-02    0.103E-01
RMM:  11    -0.145187372017E+03    0.13337E-03   -0.20195E-04   213   0.383E-02    0.529E-02
RMM:  12    -0.145187370079E+03    0.19386E-05   -0.96657E-05   205   0.337E-02
   25 T=  2660. E= -.13418381E+03 F= -.14518737E+03 E0= -.14504993E+03  EK= 0.11004E+02 SP= 0.00E+00 SK= 0.00E+00
 bond charge predicted
 prediction of wavefunctions
       N       E                     dE             d eps       ncg     rms          rms(c)
DAV:   1    -0.145088977195E+03    0.98395E-01   -0.11621E+01   384   0.674E+00    0.569E-01
RMM:   2    -0.145173462684E+03   -0.84485E-01   -0.23418E-01   385   0.122E+00    0.260E+00
RMM:   3    -0.145116728977E+03    0.56734E-01   -0.35916E-02   385   0.488E-01    0.991E-01
RMM:   4    -0.145108080077E+03    0.86489E-02   -0.12804E-02   385   0.292E-01    0.520E-01
RMM:   5    -0.145105939875E+03    0.21402E-02   -0.34871E-03   391   0.138E-01    0.333E-01
RMM:   6    -0.145105046001E+03    0.89387E-03   -0.92715E-04   385   0.675E-02    0.265E-01
RMM:   7    -0.145104760456E+03    0.28554E-03   -0.54430E-04   302   0.567E-02    0.235E-01
RMM:   8    -0.145104909281E+03   -0.14882E-03   -0.12939E-03   387   0.832E-02    0.270E-01
RMM:   9    -0.145104901430E+03    0.78508E-05   -0.15387E-03   389   0.842E-02    0.291E-01
RMM:  10    -0.145104184132E+03    0.71730E-03   -0.60557E-04   347   0.568E-02    0.102E-01
RMM:  11    -0.145104098601E+03    0.85531E-04   -0.17564E-04   213   0.394E-02
   26 T=  2473. E= -.13487632E+03 F= -.14510410E+03 E0= -.14496906E+03  EK= 0.10228E+02 SP= 0.00E+00 SK= 0.00E+00
 bond charge predicted
 prediction of wavefunctions
       N       E                     dE             d eps       ncg     rms          rms(c)
DAV:   1    -0.145032388334E+03    0.71796E-01   -0.59834E+00   384   0.489E+00    0.391E-01
RMM:   2    -0.145058567422E+03   -0.26179E-01   -0.13331E-01   385   0.104E+00    0.129E+00
RMM:   3    -0.145047516206E+03    0.11051E-01   -0.19592E-02   455   0.314E-01    0.692E-01
RMM:   4    -0.145043599888E+03    0.39163E-02   -0.53579E-03   385   0.192E-01    0.347E-01
RMM:   5    -0.145042624619E+03    0.97527E-03   -0.14021E-03   384   0.926E-02    0.262E-01
RMM:   6    -0.145042087159E+03    0.53746E-03   -0.38927E-04   269   0.499E-02    0.169E-01
RMM:   7    -0.145042021785E+03    0.65374E-04   -0.35535E-04   244   0.531E-02
   27 T=  2613. E= -.13423178E+03 F= -.14504202E+03 E0= -.14491076E+03  EK= 0.10810E+02 SP= 0.00E+00 SK= 0.00E+00
 bond charge predicted
 prediction of wavefunctions
       N       E                     dE             d eps       ncg     rms          rms(c)
DAV:   1    -0.145032064542E+03    0.10023E-01   -0.14410E+01   384   0.744E+00    0.735E-01
RMM:   2    -0.145220393823E+03   -0.18833E+00   -0.31788E-01   386   0.137E+00    0.428E+00
RMM:   3    -0.145071330312E+03    0.14906E+00   -0.59215E-02   385   0.603E-01    0.130E+00
RMM:   4    -0.145052912870E+03    0.18417E-01   -0.19950E-02   385   0.370E-01    0.558E-01
RMM:   5    -0.145050748772E+03    0.21641E-02   -0.52035E-03   395   0.171E-01    0.411E-01
RMM:   6    -0.145049245304E+03    0.15035E-02   -0.14440E-03   394   0.818E-02    0.280E-01
RMM:   7    -0.145048903911E+03    0.34139E-03   -0.70108E-04   348   0.614E-02    0.243E-01
RMM:   8    -0.145049047252E+03   -0.14334E-03   -0.15328E-03   388   0.891E-02    0.282E-01
RMM:   9    -0.145048887842E+03    0.15941E-03   -0.16012E-03   386   0.846E-02    0.268E-01
RMM:  10    -0.145048379184E+03    0.50866E-03   -0.60558E-04   350   0.581E-02    0.156E-01
RMM:  11    -0.145048205331E+03    0.17385E-03   -0.21382E-04   213   0.425E-02    0.679E-02
RMM:  12    -0.145048181083E+03    0.24248E-04   -0.11681E-04   207   0.354E-02
   28 T=  3248. E= -.13161303E+03 F= -.14504818E+03 E0= -.14491899E+03  EK= 0.13435E+02 SP= 0.00E+00 SK= 0.00E+00
 bond charge predicted
 prediction of wavefunctions
       N       E                     dE             d eps       ncg     rms          rms(c)
DAV:   1    -0.145052462737E+03   -0.42574E-02   -0.15780E+01   384   0.774E+00    0.652E-01
RMM:   2    -0.145155686317E+03   -0.10322E+00   -0.30841E-01   385   0.145E+00    0.283E+00
RMM:   3    -0.145087108414E+03    0.68578E-01   -0.46366E-02   390   0.534E-01    0.968E-01
RMM:   4    -0.145079653542E+03    0.74549E-02   -0.15280E-02   385   0.320E-01    0.690E-01
RMM:   5    -0.145076637070E+03    0.30165E-02   -0.40546E-03   391   0.152E-01    0.474E-01
RMM:   6    -0.145074887521E+03    0.17495E-02   -0.14729E-03   386   0.904E-02    0.321E-01
RMM:   7    -0.145074210541E+03    0.67698E-03   -0.91705E-04   383   0.712E-02    0.232E-01
RMM:   8    -0.145075073740E+03   -0.86320E-03   -0.18884E-03   387   0.965E-02    0.405E-01
RMM:   9    -0.145074436407E+03    0.63733E-03   -0.16183E-03   388   0.876E-02    0.303E-01
RMM:  10    -0.145073614453E+03    0.82195E-03   -0.10137E-03   384   0.738E-02    0.114E-01
RMM:  11    -0.145073510235E+03    0.10422E-03   -0.23008E-04   219   0.432E-02    0.774E-02
RMM:  12    -0.145073472195E+03    0.38040E-04   -0.11705E-04   206   0.370E-02
   29 T=  2945. E= -.13289203E+03 F= -.14507347E+03 E0= -.14494685E+03  EK= 0.12181E+02 SP= 0.00E+00 SK= 0.00E+00
 bond charge predicted
 prediction of wavefunctions
       N       E                     dE             d eps       ncg     rms          rms(c)
DAV:   1    -0.145065241054E+03    0.82692E-02   -0.93833E+00   384   0.606E+00    0.497E-01
RMM:   2    -0.145119358887E+03   -0.54118E-01   -0.19588E-01   385   0.124E+00    0.204E+00
RMM:   3    -0.145088299141E+03    0.31060E-01   -0.31146E-02   400   0.426E-01    0.775E-01
RMM:   4    -0.145082957909E+03    0.53412E-02   -0.89157E-03   385   0.252E-01    0.553E-01
RMM:   5    -0.145080235680E+03    0.27222E-02   -0.23669E-03   386   0.117E-01    0.263E-01
RMM:   6    -0.145079463719E+03    0.77196E-03   -0.76908E-04   371   0.668E-02    0.180E-01
RMM:   7    -0.145079693204E+03   -0.22948E-03   -0.54262E-04   310   0.547E-02    0.275E-01
RMM:   8    -0.145079563919E+03    0.12928E-03   -0.10791E-03   389   0.744E-02    0.251E-01
RMM:   9    -0.145079138141E+03    0.42578E-03   -0.12718E-03   384   0.796E-02    0.164E-01
RMM:  10    -0.145078906558E+03    0.23158E-03   -0.33491E-04   244   0.486E-02    0.688E-02
RMM:  11    -0.145078888911E+03    0.17647E-04   -0.14215E-04   207   0.402E-02
   30 T=  2594. E= -.13435070E+03 F= -.14507889E+03 E0= -.14495428E+03  EK= 0.10728E+02 SP= 0.00E+00 SK= 0.00E+00
 bond charge predicted
 prediction of wavefunctions
       N       E                     dE             d eps       ncg     rms          rms(c)
DAV:   1    -0.145094260982E+03   -0.15354E-01   -0.11686E+01   384   0.675E+00    0.624E-01
RMM:   2    -0.145212617393E+03   -0.11836E+00   -0.26029E-01   385   0.142E+00    0.344E+00
RMM:   3    -0.145123959648E+03    0.88658E-01   -0.47268E-02   387   0.537E-01    0.901E-01
RMM:   4    -0.145116061745E+03    0.78979E-02   -0.15130E-02   385   0.324E-01    0.602E-01
RMM:   5    -0.145112984962E+03    0.30768E-02   -0.35773E-03   390   0.142E-01    0.353E-01
RMM:   6    -0.145111788143E+03    0.11968E-02   -0.11129E-03   384   0.803E-02    0.240E-01
RMM:   7    -0.145111608369E+03    0.17977E-03   -0.60057E-04   327   0.583E-02    0.241E-01
RMM:   8    -0.145111819067E+03   -0.21070E-03   -0.12698E-03   388   0.806E-02    0.294E-01
RMM:   9    -0.145111347950E+03    0.47112E-03   -0.14676E-03   384   0.832E-02    0.213E-01
RMM:  10    -0.145111009203E+03    0.33875E-03   -0.45383E-04   289   0.538E-02    0.117E-01
RMM:  11    -0.145110966337E+03    0.42866E-04   -0.19446E-04   214   0.431E-02
   31 T=  2922. E= -.13302274E+03 F= -.14511097E+03 E0= -.14499022E+03  EK= 0.12088E+02 SP= 0.00E+00 SK= 0.00E+00
 bond charge predicted
 prediction of wavefunctions
       N       E                     dE             d eps       ncg     rms          rms(c)
DAV:   1    -0.145107589027E+03    0.34202E-02   -0.17141E+01   384   0.808E+00    0.658E-01
RMM:   2    -0.145189355142E+03   -0.81766E-01   -0.32941E-01   385   0.149E+00    0.234E+00
RMM:   3    -0.145144577820E+03    0.44777E-01   -0.47460E-02   400   0.536E-01    0.996E-01
RMM:   4    -0.145135700834E+03    0.88770E-02   -0.15080E-02   385   0.309E-01    0.557E-01
RMM:   5    -0.145133388274E+03    0.23126E-02   -0.35156E-03   386   0.141E-01    0.443E-01
RMM:   6    -0.145131875981E+03    0.15123E-02   -0.11582E-03   391   0.779E-02    0.297E-01
RMM:   7    -0.145131659748E+03    0.21623E-03   -0.10755E-03   391   0.783E-02    0.281E-01
RMM:   8    -0.145131860413E+03   -0.20067E-03   -0.23400E-03   385   0.105E-01    0.323E-01
RMM:   9    -0.145130978317E+03    0.88210E-03   -0.18712E-03   385   0.942E-02    0.170E-01
RMM:  10    -0.145130686526E+03    0.29179E-03   -0.43094E-04   281   0.544E-02    0.743E-02
RMM:  11    -0.145130700263E+03   -0.13737E-04   -0.15108E-04   211   0.383E-02
   32 T=  2833. E= -.13341286E+03 F= -.14513070E+03 E0= -.14500813E+03  EK= 0.11718E+02 SP= 0.00E+00 SK= 0.00E+00
 bond charge predicted
 prediction of wavefunctions
       N       E                     dE             d eps       ncg     rms          rms(c)
DAV:   1    -0.145142915197E+03   -0.12229E-01   -0.84080E+00   384   0.565E+00    0.440E-01
RMM:   2    -0.145185815853E+03   -0.42901E-01   -0.17358E-01   385   0.116E+00    0.178E+00
RMM:   3    -0.145162113167E+03    0.23703E-01   -0.25841E-02   422   0.380E-01    0.664E-01
RMM:   4    -0.145158879441E+03    0.32337E-02   -0.73280E-03   385   0.221E-01    0.452E-01
RMM:   5    -0.145156959667E+03    0.19198E-02   -0.18394E-03   385   0.103E-01    0.263E-01
RMM:   6    -0.145156355627E+03    0.60404E-03   -0.61575E-04   337   0.594E-02    0.191E-01
RMM:   7    -0.145156310277E+03    0.45350E-04   -0.33563E-04   245   0.488E-02
   33 T=  3250. E= -.13171348E+03 F= -.14515631E+03 E0= -.14503102E+03  EK= 0.13443E+02 SP= 0.00E+00 SK= 0.00E+00
 bond charge predicted
 prediction of wavefunctions
       N       E                     dE             d eps       ncg     rms          rms(c)
DAV:   1    -0.145175705976E+03   -0.19350E-01   -0.16550E+01   384   0.796E+00    0.802E-01
RMM:   2    -0.145371110865E+03   -0.19540E+00   -0.36698E-01   385   0.157E+00    0.414E+00
RMM:   3    -0.145216222642E+03    0.15489E+00   -0.68886E-02   386   0.657E-01    0.116E+00
RMM:   4    -0.145202212596E+03    0.14010E-01   -0.21636E-02   385   0.381E-01    0.711E-01
RMM:   5    -0.145199293749E+03    0.29188E-02   -0.59783E-03   394   0.179E-01    0.529E-01
RMM:   6    -0.145197544730E+03    0.17490E-02   -0.19645E-03   389   0.105E-01    0.397E-01
RMM:   7    -0.145196232137E+03    0.13126E-02   -0.11513E-03   385   0.809E-02    0.236E-01
RMM:   8    -0.145196496352E+03   -0.26422E-03   -0.19543E-03   384   0.101E-01    0.293E-01
RMM:   9    -0.145195996928E+03    0.49942E-03   -0.22502E-03   385   0.994E-02    0.236E-01
RMM:  10    -0.145195523763E+03    0.47316E-03   -0.54231E-04   312   0.563E-02    0.114E-01
RMM:  11    -0.145195461080E+03    0.62683E-04   -0.17126E-04   213   0.407E-02
   34 T=  3278. E= -.13163673E+03 F= -.14519546E+03 E0= -.14506875E+03  EK= 0.13559E+02 SP= 0.00E+00 SK= 0.00E+00
 bond charge predicted
 prediction of wavefunctions
       N       E                     dE             d eps       ncg     rms          rms(c)
DAV:   1    -0.145155537017E+03    0.39987E-01   -0.78895E+00   384   0.561E+00    0.548E-01
RMM:   2    -0.145236989479E+03   -0.81452E-01   -0.19942E-01   385   0.131E+00    0.269E+00
RMM:   3    -0.145176967483E+03    0.60022E-01   -0.36189E-02   388   0.471E-01    0.765E-01
RMM:   4    -0.145171703555E+03    0.52639E-02   -0.10281E-02   385   0.270E-01    0.559E-01
RMM:   5    -0.145169052553E+03    0.26510E-02   -0.27574E-03   390   0.128E-01    0.279E-01
RMM:   6    -0.145168288040E+03    0.76451E-03   -0.76163E-04   350   0.664E-02    0.201E-01
RMM:   7    -0.145168205441E+03    0.82599E-04   -0.32450E-04   246   0.473E-02
   35 T=  3561. E= -.13043663E+03 F= -.14516821E+03 E0= -.14504220E+03  EK= 0.14732E+02 SP= 0.00E+00 SK= 0.00E+00
 bond charge predicted
 prediction of wavefunctions
       N       E                     dE             d eps       ncg     rms          rms(c)
DAV:   1    -0.145199784653E+03   -0.31497E-01   -0.16989E+01   384   0.807E+00    0.892E-01
RMM:   2    -0.145365391313E+03   -0.16561E+00   -0.44108E-01   385   0.182E+00    0.341E+00
RMM:   3    -0.145241089392E+03    0.12430E+00   -0.81461E-02   385   0.710E-01    0.125E+00
RMM:   4    -0.145227293500E+03    0.13796E-01   -0.20917E-02   385   0.369E-01    0.767E-01
RMM:   5    -0.145222525248E+03    0.47683E-02   -0.66481E-03   391   0.194E-01    0.439E-01
RMM:   6    -0.145220808563E+03    0.17167E-02   -0.20900E-03   387   0.103E-01    0.296E-01
RMM:   7    -0.145220535243E+03    0.27332E-03   -0.94515E-04   390   0.648E-02    0.293E-01
RMM:   8    -0.145220730484E+03   -0.19524E-03   -0.12665E-03   392   0.826E-02    0.325E-01
RMM:   9    -0.145220403462E+03    0.32702E-03   -0.25627E-03   385   0.109E-01    0.281E-01
RMM:  10    -0.145219665482E+03    0.73798E-03   -0.88055E-04   381   0.667E-02    0.100E-01
RMM:  11    -0.145219622543E+03    0.42939E-04   -0.20971E-04   215   0.409E-02
   36 T=  3130. E= -.13227129E+03 F= -.14521962E+03 E0= -.14509429E+03  EK= 0.12948E+02 SP= 0.00E+00 SK= 0.00E+00
 bond charge predicted
 prediction of wavefunctions
       N       E                     dE             d eps       ncg     rms          rms(c)
DAV:   1    -0.145250624898E+03   -0.30959E-01   -0.18093E+01   384   0.836E+00    0.711E-01
RMM:   2    -0.145355845351E+03   -0.10522E+00   -0.35931E-01   385   0.157E+00    0.278E+00
RMM:   3    -0.145291783037E+03    0.64062E-01   -0.53934E-02   392   0.554E-01    0.117E+00
RMM:   4    -0.145279410123E+03    0.12373E-01   -0.17231E-02   385   0.341E-01    0.653E-01
RMM:   5    -0.145276005651E+03    0.34045E-02   -0.54337E-03   390   0.173E-01    0.433E-01
RMM:   6    -0.145274107701E+03    0.18979E-02   -0.17631E-03   386   0.989E-02    0.256E-01
RMM:   7    -0.145273894346E+03    0.21336E-03   -0.14529E-03   387   0.887E-02    0.263E-01
RMM:   8    -0.145274858139E+03   -0.96379E-03   -0.21748E-03   393   0.100E-01    0.436E-01
RMM:   9    -0.145273684209E+03    0.11739E-02   -0.18095E-03   385   0.953E-02    0.255E-01
RMM:  10    -0.145273112792E+03    0.57142E-03   -0.59240E-04   337   0.603E-02    0.882E-02
RMM:  11    -0.145273034854E+03    0.77938E-04   -0.18625E-04   214   0.404E-02
   37 T=  3001. E= -.13286030E+03 F= -.14527303E+03 E0= -.14514902E+03  EK= 0.12413E+02 SP= 0.00E+00 SK= 0.00E+00
 bond charge predicted
 prediction of wavefunctions
       N       E                     dE             d eps       ncg     rms          rms(c)
DAV:   1    -0.145243738133E+03    0.29375E-01   -0.10758E+01   384   0.631E+00    0.649E-01
RMM:   2    -0.145353584005E+03   -0.10985E+00   -0.23632E-01   385   0.119E+00    0.320E+00
RMM:   3    -0.145271941248E+03    0.81643E-01   -0.44583E-02   385   0.553E-01    0.105E+00
RMM:   4    -0.145260965019E+03    0.10976E-01   -0.15395E-02   385   0.312E-01    0.542E-01
RMM:   5    -0.145258983374E+03    0.19816E-02   -0.37846E-03   394   0.142E-01    0.403E-01
RMM:   6    -0.145257460287E+03    0.15231E-02   -0.11147E-03   380   0.773E-02    0.231E-01
RMM:   7    -0.145257354094E+03    0.10619E-03   -0.46478E-04   288   0.525E-02    0.244E-01
RMM:   8    -0.145257236894E+03    0.11720E-03   -0.13543E-03   384   0.852E-02    0.213E-01
RMM:   9    -0.145257165838E+03    0.71056E-04   -0.14334E-03   387   0.798E-02    0.225E-01
RMM:  10    -0.145256775482E+03    0.39036E-03   -0.34014E-04   246   0.485E-02    0.967E-02
RMM:  11    -0.145256707998E+03    0.67484E-04   -0.17282E-04   213   0.418E-02
   38 T=  2752. E= -.13387509E+03 F= -.14525671E+03 E0= -.14513393E+03  EK= 0.11382E+02 SP= 0.00E+00 SK= 0.00E+00
 bond charge predicted
 prediction of wavefunctions
       N       E                     dE             d eps       ncg     rms          rms(c)
DAV:   1    -0.145229261878E+03    0.27514E-01   -0.17955E+01   384   0.819E+00    0.646E-01
RMM:   2    -0.145311069462E+03   -0.81808E-01   -0.33623E-01   385   0.145E+00    0.232E+00
RMM:   3    -0.145265655113E+03    0.45414E-01   -0.46059E-02   398   0.494E-01    0.104E+00
RMM:   4    -0.145256215196E+03    0.94399E-02   -0.12982E-02   385   0.289E-01    0.554E-01
RMM:   5    -0.145253757977E+03    0.24572E-02   -0.34653E-03   388   0.138E-01    0.395E-01
RMM:   6    -0.145252231416E+03    0.15266E-02   -0.10630E-03   380   0.717E-02    0.224E-01
RMM:   7    -0.145252222432E+03    0.89844E-05   -0.11146E-03   387   0.748E-02    0.278E-01
RMM:   8    -0.145252727862E+03   -0.50543E-03   -0.15980E-03   399   0.849E-02    0.378E-01
RMM:   9    -0.145251707311E+03    0.10206E-02   -0.20225E-03   384   0.928E-02    0.203E-01
RMM:  10    -0.145251335369E+03    0.37194E-03   -0.57355E-04   326   0.598E-02    0.929E-02
RMM:  11    -0.145251283490E+03    0.51879E-04   -0.16536E-04   213   0.386E-02
   39 T=  2679. E= -.13417032E+03 F= -.14525128E+03 E0= -.14512865E+03  EK= 0.11081E+02 SP= 0.00E+00 SK= 0.00E+00
 bond charge predicted
 prediction of wavefunctions
       N       E                     dE             d eps       ncg     rms          rms(c)
DAV:   1    -0.145206298493E+03    0.45037E-01   -0.14673E+01   384   0.751E+00    0.685E-01
RMM:   2    -0.145309019285E+03   -0.10272E+00   -0.30223E-01   385   0.139E+00    0.276E+00
RMM:   3    -0.145238331118E+03    0.70688E-01   -0.48580E-02   390   0.529E-01    0.993E-01
RMM:   4    -0.145229516368E+03    0.88148E-02   -0.14156E-02   385   0.308E-01    0.599E-01
RMM:   5    -0.145227075916E+03    0.24405E-02   -0.44450E-03   388   0.156E-01    0.427E-01
RMM:   6    -0.145225401328E+03    0.16746E-02   -0.13670E-03   385   0.861E-02    0.277E-01
RMM:   7    -0.145225163128E+03    0.23820E-03   -0.79671E-04   372   0.679E-02    0.266E-01
RMM:   8    -0.145225322686E+03   -0.15956E-03   -0.19074E-03   387   0.966E-02    0.299E-01
RMM:   9    -0.145224677724E+03    0.64496E-03   -0.15689E-03   385   0.841E-02    0.184E-01
RMM:  10    -0.145224323266E+03    0.35446E-03   -0.55233E-04   324   0.558E-02    0.656E-02
RMM:  11    -0.145224309646E+03    0.13620E-04   -0.13287E-04   208   0.353E-02
   40 T=  2462. E= -.13504113E+03 F= -.14522431E+03 E0= -.14510345E+03  EK= 0.10183E+02 SP= 0.00E+00 SK= 0.00E+00
 bond charge predicted
 prediction of wavefunctions
       N       E                     dE             d eps       ncg     rms          rms(c)
DAV:   1    -0.145162370522E+03    0.61953E-01   -0.71998E+00   384   0.533E+00    0.523E-01
RMM:   2    -0.145256479468E+03   -0.94109E-01   -0.17490E-01   386   0.115E+00    0.289E+00
RMM:   3    -0.145182604791E+03    0.73875E-01   -0.32510E-02   385   0.457E-01    0.719E-01
RMM:   4    -0.145174468730E+03    0.81361E-02   -0.11525E-02   386   0.291E-01    0.370E-01
RMM:   5    -0.145173486295E+03    0.98243E-03   -0.21028E-03   406   0.101E-01    0.305E-01
RMM:   6    -0.145172795186E+03    0.69111E-03   -0.57866E-04   312   0.581E-02    0.207E-01
RMM:   7    -0.145172552477E+03    0.24271E-03   -0.37447E-04   252   0.536E-02    0.175E-01
RMM:   8    -0.145172615809E+03   -0.63333E-04   -0.11737E-03   384   0.788E-02    0.197E-01
RMM:   9    -0.145172658909E+03   -0.43100E-04   -0.10135E-03   384   0.695E-02    0.237E-01
RMM:  10    -0.145172187236E+03    0.47167E-03   -0.29881E-04   226   0.456E-02    0.640E-02
RMM:  11    -0.145172166096E+03    0.21140E-04   -0.15856E-04   210   0.418E-02
   41 T=  2491. E= -.13487012E+03 F= -.14517217E+03 E0= -.14505335E+03  EK= 0.10302E+02 SP= 0.00E+00 SK= 0.00E+00
 bond charge predicted
 prediction of wavefunctions
       N       E                     dE             d eps       ncg     rms          rms(c)
DAV:   1    -0.145133347916E+03    0.38839E-01   -0.15639E+01   384   0.772E+00    0.577E-01
RMM:   2    -0.145195634837E+03   -0.62287E-01   -0.27683E-01   385   0.127E+00    0.196E+00
RMM:   3    -0.145164939689E+03    0.30695E-01   -0.35570E-02   391   0.467E-01    0.967E-01
RMM:   4    -0.145156856655E+03    0.80830E-02   -0.11627E-02   385   0.278E-01    0.508E-01
RMM:   5    -0.145154232598E+03    0.26241E-02   -0.29165E-03   387   0.130E-01    0.333E-01
RMM:   6    -0.145153211923E+03    0.10207E-02   -0.87595E-04   378   0.665E-02    0.231E-01
RMM:   7    -0.145153309462E+03   -0.97540E-04   -0.85461E-04   390   0.650E-02
   42 T=  2447. E= -.13503319E+03 F= -.14515331E+03 E0= -.14503551E+03  EK= 0.10120E+02 SP= 0.00E+00 SK= 0.00E+00
 bond charge predicted
 prediction of wavefunctions
       N       E                     dE             d eps       ncg     rms          rms(c)
DAV:   1    -0.145186088024E+03   -0.32876E-01   -0.12311E+01   384   0.691E+00    0.802E-01
RMM:   2    -0.145394134752E+03   -0.20805E+00   -0.31787E-01   385   0.139E+00    0.396E+00
RMM:   3    -0.145219214402E+03    0.17492E+00   -0.66301E-02   385   0.648E-01    0.123E+00
RMM:   4    -0.145202388772E+03    0.16826E-01   -0.20115E-02   385   0.363E-01    0.454E-01
RMM:   5    -0.145201380132E+03    0.10086E-02   -0.46702E-03   396   0.155E-01    0.448E-01
RMM:   6    -0.145199856800E+03    0.15233E-02   -0.14031E-03   393   0.795E-02    0.286E-01
RMM:   7    -0.145199406217E+03    0.45058E-03   -0.78151E-04   376   0.639E-02    0.242E-01
RMM:   8    -0.145199530163E+03   -0.12395E-03   -0.13912E-03   386   0.856E-02    0.281E-01
RMM:   9    -0.145199443207E+03    0.86957E-04   -0.18542E-03   385   0.952E-02    0.285E-01
RMM:  10    -0.145198712420E+03    0.73079E-03   -0.74527E-04   368   0.638E-02    0.117E-01
RMM:  11    -0.145198605610E+03    0.10681E-03   -0.16408E-04   213   0.367E-02    0.727E-02
RMM:  12    -0.145198570049E+03    0.35561E-04   -0.10653E-04   205   0.331E-02
   43 T=  2224. E= -.13599874E+03 F= -.14519857E+03 E0= -.14508040E+03  EK= 0.91998E+01 SP= 0.00E+00 SK= 0.00E+00
 bond charge predicted
 prediction of wavefunctions
       N       E                     dE             d eps       ncg     rms          rms(c)
DAV:   1    -0.145214768315E+03   -0.16163E-01   -0.11243E+01   384   0.647E+00    0.536E-01
RMM:   2    -0.145270083445E+03   -0.55315E-01   -0.22332E-01   385   0.117E+00    0.188E+00
RMM:   3    -0.145238206032E+03    0.31877E-01   -0.32446E-02   386   0.448E-01    0.788E-01
RMM:   4    -0.145232161443E+03    0.60446E-02   -0.87013E-03   385   0.235E-01    0.468E-01
RMM:   5    -0.145230346327E+03    0.18151E-02   -0.22846E-03   388   0.112E-01    0.316E-01
RMM:   6    -0.145229411049E+03    0.93528E-03   -0.72940E-04   350   0.615E-02    0.198E-01
RMM:   7    -0.145229374345E+03    0.36705E-04   -0.42881E-04   269   0.509E-02
   44 T=  2471. E= -.13500967E+03 F= -.14522937E+03 E0= -.14511131E+03  EK= 0.10220E+02 SP= 0.00E+00 SK= 0.00E+00
 bond charge predicted
 prediction of wavefunctions
       N       E                     dE             d eps       ncg     rms          rms(c)
DAV:   1    -0.145289041690E+03   -0.59631E-01   -0.72692E+00   392   0.530E+00    0.623E-01
RMM:   2    -0.145404445673E+03   -0.11540E+00   -0.20384E-01   385   0.125E+00    0.326E+00
RMM:   3    -0.145313692727E+03    0.90753E-01   -0.40887E-02   385   0.512E-01    0.108E+00
RMM:   4    -0.145302110967E+03    0.11582E-01   -0.14673E-02   385   0.320E-01    0.507E-01
RMM:   5    -0.145299761206E+03    0.23498E-02   -0.40997E-03   386   0.155E-01    0.301E-01
RMM:   6    -0.145298816598E+03    0.94461E-03   -0.11216E-03   383   0.749E-02    0.215E-01
RMM:   7    -0.145298761853E+03    0.54745E-04   -0.48671E-04   295   0.525E-02
   45 T=  2563. E= -.13469931E+03 F= -.14529876E+03 E0= -.14518111E+03  EK= 0.10599E+02 SP= 0.00E+00 SK= 0.00E+00
 bond charge predicted
 prediction of wavefunctions
       N       E                     dE             d eps       ncg     rms          rms(c)
DAV:   1    -0.145370643023E+03   -0.71826E-01   -0.55115E+00   384   0.474E+00    0.489E-01
RMM:   2    -0.145421655504E+03   -0.51012E-01   -0.15416E-01   385   0.113E+00    0.198E+00
RMM:   3    -0.145387321172E+03    0.34334E-01   -0.25480E-02   390   0.395E-01    0.743E-01
RMM:   4    -0.145381482743E+03    0.58384E-02   -0.84350E-03   385   0.245E-01    0.400E-01
RMM:   5    -0.145380337752E+03    0.11450E-02   -0.22271E-03   388   0.113E-01    0.300E-01
RMM:   6    -0.145379570482E+03    0.76727E-03   -0.71788E-04   361   0.674E-02    0.174E-01
RMM:   7    -0.145379510377E+03    0.60105E-04   -0.40976E-04   262   0.513E-02
   46 T=  2834. E= -.13365790E+03 F= -.14537951E+03 E0= -.14526368E+03  EK= 0.11722E+02 SP= 0.00E+00 SK= 0.00E+00
 bond charge predicted
 prediction of wavefunctions
       N       E                     dE             d eps       ncg     rms          rms(c)
DAV:   1    -0.145476207467E+03   -0.96637E-01   -0.19730E+01   384   0.870E+00    0.729E-01
RMM:   2    -0.145644454324E+03   -0.16825E+00   -0.37950E-01   385   0.152E+00    0.374E+00
RMM:   3    -0.145517039728E+03    0.12741E+00   -0.60530E-02   386   0.606E-01    0.104E+00
RMM:   4    -0.145505691059E+03    0.11349E-01   -0.19578E-02   385   0.370E-01    0.638E-01
RMM:   5    -0.145502813042E+03    0.28780E-02   -0.46719E-03   393   0.158E-01    0.493E-01
RMM:   6    -0.145500909955E+03    0.19031E-02   -0.16393E-03   388   0.940E-02    0.327E-01
RMM:   7    -0.145500243669E+03    0.66629E-03   -0.12839E-03   387   0.815E-02    0.260E-01
RMM:   8    -0.145500515733E+03   -0.27206E-03   -0.30153E-03   385   0.125E-01    0.321E-01
RMM:   9    -0.145500062925E+03    0.45281E-03   -0.23429E-03   386   0.101E-01    0.271E-01
RMM:  10    -0.145499496570E+03    0.56636E-03   -0.65465E-04   349   0.647E-02    0.123E-01
RMM:  11    -0.145499361297E+03    0.13527E-03   -0.21174E-04   213   0.423E-02    0.852E-02
RMM:  12    -0.145499315248E+03    0.46049E-04   -0.11472E-04   204   0.348E-02
   47 T=  2687. E= -.13438608E+03 F= -.14549932E+03 E0= -.14538543E+03  EK= 0.11113E+02 SP= 0.00E+00 SK= 0.00E+00
 bond charge predicted
 prediction of wavefunctions
       N       E                     dE             d eps       ncg     rms          rms(c)
DAV:   1    -0.145564745035E+03   -0.65384E-01   -0.76834E+00   384   0.547E+00    0.544E-01
RMM:   2    -0.145634595275E+03   -0.69850E-01   -0.19018E-01   385   0.121E+00    0.235E+00
RMM:   3    -0.145585089255E+03    0.49506E-01   -0.33802E-02   385   0.468E-01    0.796E-01
RMM:   4    -0.145578500687E+03    0.65886E-02   -0.10153E-02   385   0.265E-01    0.446E-01
RMM:   5    -0.145576826770E+03    0.16739E-02   -0.22334E-03   389   0.112E-01    0.295E-01
RMM:   6    -0.145575881696E+03    0.94507E-03   -0.61021E-04   323   0.581E-02    0.166E-01
RMM:   7    -0.145575914543E+03   -0.32847E-04   -0.48159E-04   292   0.544E-02
   48 T=  2737. E= -.13425588E+03 F= -.14557591E+03 E0= -.14546418E+03  EK= 0.11320E+02 SP= 0.00E+00 SK= 0.00E+00
 bond charge predicted
 prediction of wavefunctions
       N       E                     dE             d eps       ncg     rms          rms(c)
DAV:   1    -0.145655115676E+03   -0.79234E-01   -0.10055E+01   384   0.629E+00    0.682E-01
RMM:   2    -0.145815658270E+03   -0.16054E+00   -0.27093E-01   385   0.147E+00    0.363E+00
RMM:   3    -0.145685694795E+03    0.12996E+00   -0.52802E-02   386   0.584E-01    0.990E-01
RMM:   4    -0.145671824386E+03    0.13870E-01   -0.17144E-02   385   0.348E-01    0.441E-01
RMM:   5    -0.145670536110E+03    0.12883E-02   -0.35284E-03   397   0.136E-01    0.383E-01
RMM:   6    -0.145669458913E+03    0.10772E-02   -0.97396E-04   382   0.713E-02    0.255E-01
RMM:   7    -0.145669084726E+03    0.37419E-03   -0.64941E-04   330   0.603E-02    0.202E-01
RMM:   8    -0.145669361993E+03   -0.27727E-03   -0.12987E-03   391   0.822E-02    0.268E-01
RMM:   9    -0.145669131423E+03    0.23057E-03   -0.14482E-03   388   0.817E-02    0.248E-01
RMM:  10    -0.145668641566E+03    0.48986E-03   -0.52580E-04   321   0.555E-02    0.101E-01
RMM:  11    -0.145668582612E+03    0.58954E-04   -0.21305E-04   213   0.444E-02
   49 T=  2554. E= -.13510360E+03 F= -.14566858E+03 E0= -.14555838E+03  EK= 0.10565E+02 SP= 0.00E+00 SK= 0.00E+00
 bond charge predicted
 prediction of wavefunctions
       N       E                     dE             d eps       ncg     rms          rms(c)
DAV:   1    -0.145725970786E+03   -0.57329E-01   -0.92956E+00   384   0.589E+00    0.699E-01
RMM:   2    -0.145856855819E+03   -0.13089E+00   -0.22185E-01   385   0.118E+00    0.369E+00
RMM:   3    -0.145751871672E+03    0.10498E+00   -0.52168E-02   385   0.600E-01    0.107E+00
RMM:   4    -0.145740803013E+03    0.11069E-01   -0.17504E-02   385   0.333E-01    0.550E-01
RMM:   5    -0.145738700502E+03    0.21025E-02   -0.39139E-03   396   0.141E-01    0.412E-01
RMM:   6    -0.145737122694E+03    0.15778E-02   -0.12115E-03   381   0.820E-02    0.250E-01
RMM:   7    -0.145736916984E+03    0.20571E-03   -0.52211E-04   307   0.560E-02    0.242E-01
RMM:   8    -0.145736861519E+03    0.55464E-04   -0.11903E-03   383   0.783E-02    0.236E-01
RMM:   9    -0.145736511653E+03    0.34987E-03   -0.11089E-03   380   0.733E-02    0.180E-01
RMM:  10    -0.145736200242E+03    0.31141E-03   -0.40360E-04   263   0.505E-02    0.663E-02
RMM:  11    -0.145736177550E+03    0.22692E-04   -0.14940E-04   210   0.394E-02
   50 T=  2348. E= -.13602564E+03 F= -.14573618E+03 E0= -.14562552E+03  EK= 0.97105E+01 SP= 0.00E+00 SK= 0.00E+00
 bond charge predicted
 prediction of wavefunctions
       N       E                     dE             d eps       ncg     rms          rms(c)
DAV:   1    -0.145769428774E+03   -0.33229E-01   -0.13318E+01   384   0.704E+00    0.539E-01
RMM:   2    -0.145825523596E+03   -0.56095E-01   -0.23856E-01   385   0.120E+00    0.198E+00
RMM:   3    -0.145793638426E+03    0.31885E-01   -0.31456E-02   398   0.439E-01    0.627E-01
RMM:   4    -0.145791346574E+03    0.22919E-02   -0.97899E-03   386   0.251E-01    0.582E-01
RMM:   5    -0.145788145134E+03    0.32014E-02   -0.22249E-03   385   0.110E-01    0.307E-01
RMM:   6    -0.145787451785E+03    0.69335E-03   -0.87146E-04   364   0.715E-02    0.224E-01
RMM:   7    -0.145787537359E+03   -0.85574E-04   -0.79304E-04   368   0.653E-02
   51 T=  2558. E= -.13520586E+03 F= -.14578754E+03 E0= -.14567467E+03  EK= 0.10582E+02 SP= 0.00E+00 SK= 0.00E+00
 bond charge predicted
 prediction of wavefunctions
       N       E                     dE             d eps       ncg     rms          rms(c)
DAV:   1    -0.145754630589E+03    0.32821E-01   -0.62685E+00   384   0.498E+00    0.558E-01
RMM:   2    -0.145847896661E+03   -0.93266E-01   -0.17718E-01   385   0.117E+00    0.295E+00
RMM:   3    -0.145774988117E+03    0.72909E-01   -0.33236E-02   386   0.462E-01    0.879E-01
RMM:   4    -0.145766794171E+03    0.81939E-02   -0.11367E-02   385   0.281E-01    0.518E-01
RMM:   5    -0.145764397231E+03    0.23969E-02   -0.31557E-03   386   0.136E-01    0.279E-01
RMM:   6    -0.145763881607E+03    0.51562E-03   -0.95467E-04   387   0.737E-02    0.235E-01
RMM:   7    -0.145763552083E+03    0.32952E-03   -0.41182E-04   270   0.506E-02    0.185E-01
RMM:   8    -0.145763537718E+03    0.14365E-04   -0.73896E-04   377   0.678E-02
   52 T=  2494. E= -.13544584E+03 F= -.14576354E+03 E0= -.14565006E+03  EK= 0.10318E+02 SP= 0.00E+00 SK= 0.00E+00
 bond charge predicted
 prediction of wavefunctions
       N       E                     dE             d eps       ncg     rms          rms(c)
DAV:   1    -0.145766682705E+03   -0.31306E-02   -0.84067E+00   384   0.577E+00    0.667E-01
RMM:   2    -0.145929560575E+03   -0.16288E+00   -0.22984E-01   385   0.129E+00    0.386E+00
RMM:   3    -0.145792949763E+03    0.13661E+00   -0.49164E-02   385   0.565E-01    0.108E+00
RMM:   4    -0.145779608278E+03    0.13341E-01   -0.16047E-02   385   0.338E-01    0.465E-01
RMM:   5    -0.145777543768E+03    0.20645E-02   -0.37885E-03   389   0.147E-01    0.313E-01
RMM:   6    -0.145776852861E+03    0.69091E-03   -0.99004E-04   400   0.692E-02    0.228E-01
RMM:   7    -0.145776507103E+03    0.34576E-03   -0.48490E-04   296   0.503E-02    0.180E-01
RMM:   8    -0.145776492487E+03    0.14616E-04   -0.75893E-04   380   0.680E-02
   53 T=  2763. E= -.13434819E+03 F= -.14577649E+03 E0= -.14566180E+03  EK= 0.11428E+02 SP= 0.00E+00 SK= 0.00E+00
 bond charge predicted
 prediction of wavefunctions
       N       E                     dE             d eps       ncg     rms          rms(c)
DAV:   1    -0.145707385107E+03    0.69122E-01   -0.15470E+01   384   0.767E+00    0.787E-01
RMM:   2    -0.145947536836E+03   -0.24015E+00   -0.35707E-01   386   0.145E+00    0.465E+00
RMM:   3    -0.145747549112E+03    0.19999E+00   -0.68753E-02   385   0.648E-01    0.130E+00
RMM:   4    -0.145728752348E+03    0.18797E-01   -0.23649E-02   385   0.391E-01    0.539E-01
RMM:   5    -0.145726140696E+03    0.26117E-02   -0.57906E-03   398   0.170E-01    0.379E-01
RMM:   6    -0.145724909796E+03    0.12309E-02   -0.14243E-03   391   0.810E-02    0.280E-01
RMM:   7    -0.145724557550E+03    0.35225E-03   -0.64572E-04   327   0.583E-02    0.229E-01
RMM:   8    -0.145724513780E+03    0.43770E-04   -0.14933E-03   386   0.872E-02    0.236E-01
RMM:   9    -0.145724240256E+03    0.27352E-03   -0.24796E-03   384   0.100E-01    0.209E-01
RMM:  10    -0.145723893042E+03    0.34721E-03   -0.46804E-04   293   0.565E-02    0.104E-01
RMM:  11    -0.145723821085E+03    0.71957E-04   -0.18278E-04   213   0.411E-02
   54 T=  2068. E= -.13716833E+03 F= -.14572382E+03 E0= -.14560865E+03  EK= 0.85555E+01 SP= 0.00E+00 SK= 0.00E+00
 bond charge predicted
 prediction of wavefunctions
       N       E                     dE             d eps       ncg     rms          rms(c)
DAV:   1    -0.145623281557E+03    0.10061E+00   -0.93184E+00   384   0.605E+00    0.625E-01
RMM:   2    -0.145738338476E+03   -0.11506E+00   -0.22183E-01   385   0.123E+00    0.326E+00
RMM:   3    -0.145649803185E+03    0.88535E-01   -0.40543E-02   386   0.500E-01    0.100E+00
RMM:   4    -0.145637313772E+03    0.12489E-01   -0.13393E-02   385   0.305E-01    0.466E-01
RMM:   5    -0.145635616571E+03    0.16972E-02   -0.33178E-03   394   0.134E-01    0.322E-01
RMM:   6    -0.145634753775E+03    0.86280E-03   -0.91949E-04   388   0.691E-02    0.234E-01
RMM:   7    -0.145634455659E+03    0.29812E-03   -0.47085E-04   285   0.506E-02    0.196E-01
RMM:   8    -0.145634505444E+03   -0.49785E-04   -0.11359E-03   385   0.780E-02    0.211E-01
RMM:   9    -0.145634266889E+03    0.23855E-03   -0.13306E-03   386   0.769E-02    0.174E-01
RMM:  10    -0.145633977694E+03    0.28919E-03   -0.33694E-04   244   0.477E-02    0.714E-02
RMM:  11    -0.145633966605E+03    0.11089E-04   -0.13918E-04   210   0.390E-02
   55 T=  2100. E= -.13694716E+03 F= -.14563397E+03 E0= -.14551953E+03  EK= 0.86868E+01 SP= 0.00E+00 SK= 0.00E+00
 bond charge predicted
 prediction of wavefunctions
       N       E                     dE             d eps       ncg     rms          rms(c)
DAV:   1    -0.145508039594E+03    0.12594E+00   -0.24201E+00   392   0.326E+00    0.349E-01
RMM:   2    -0.145536715786E+03   -0.28676E-01   -0.84617E-02   385   0.842E-01    0.147E+00
RMM:   3    -0.145517040839E+03    0.19675E-01   -0.12958E-02   385   0.288E-01    0.578E-01
RMM:   4    -0.145513501757E+03    0.35391E-02   -0.44351E-03   385   0.173E-01    0.249E-01
RMM:   5    -0.145512978192E+03    0.52357E-03   -0.10856E-03   374   0.788E-02    0.185E-01
RMM:   6    -0.145512655677E+03    0.32251E-03   -0.23927E-04   224   0.417E-02    0.107E-01
RMM:   7    -0.145512625727E+03    0.29950E-04   -0.14682E-04   212   0.378E-02
   56 T=  2527. E= -.13506079E+03 F= -.14551263E+03 E0= -.14539987E+03  EK= 0.10452E+02 SP= 0.00E+00 SK= 0.00E+00
 bond charge predicted
 prediction of wavefunctions
       N       E                     dE             d eps       ncg     rms          rms(c)
DAV:   1    -0.145357148164E+03    0.15551E+00   -0.13584E+01   384   0.719E+00    0.655E-01
RMM:   2    -0.145456128956E+03   -0.98981E-01   -0.30148E-01   385   0.151E+00    0.280E+00
RMM:   3    -0.145392300393E+03    0.63829E-01   -0.47058E-02   392   0.511E-01    0.112E+00
RMM:   4    -0.145379909163E+03    0.12391E-01   -0.15232E-02   385   0.332E-01    0.515E-01
RMM:   5    -0.145378416622E+03    0.14925E-02   -0.37854E-03   388   0.141E-01    0.448E-01
RMM:   6    -0.145376610230E+03    0.18064E-02   -0.11661E-03   385   0.807E-02    0.247E-01
RMM:   7    -0.145376491076E+03    0.11915E-03   -0.70314E-04   353   0.619E-02    0.261E-01
RMM:   8    -0.145376278500E+03    0.21258E-03   -0.18234E-03   384   0.966E-02    0.228E-01
RMM:   9    -0.145375836894E+03    0.44161E-03   -0.19005E-03   384   0.942E-02    0.167E-01
RMM:  10    -0.145375610165E+03    0.22673E-03   -0.32509E-04   241   0.463E-02    0.913E-02
RMM:  11    -0.145375572928E+03    0.37238E-04   -0.15988E-04   213   0.401E-02
   57 T=  2427. E= -.13533539E+03 F= -.14537557E+03 E0= -.14526567E+03  EK= 0.10040E+02 SP= 0.00E+00 SK= 0.00E+00
 bond charge predicted
 prediction of wavefunctions
       N       E                     dE             d eps       ncg     rms          rms(c)
DAV:   1    -0.145289598215E+03    0.86012E-01   -0.10790E+01   384   0.649E+00    0.535E-01
RMM:   2    -0.145376674912E+03   -0.87077E-01   -0.22641E-01   385   0.132E+00    0.275E+00
RMM:   3    -0.145313518939E+03    0.63156E-01   -0.35006E-02   395   0.437E-01    0.730E-01
RMM:   4    -0.145307504133E+03    0.60148E-02   -0.10649E-02   385   0.275E-01    0.418E-01
RMM:   5    -0.145306640914E+03    0.86322E-03   -0.24417E-03   394   0.113E-01    0.389E-01
RMM:   6    -0.145305380896E+03    0.12600E-02   -0.82084E-04   368   0.676E-02    0.211E-01
RMM:   7    -0.145305167323E+03    0.21357E-03   -0.62248E-04   334   0.614E-02    0.210E-01
RMM:   8    -0.145305135406E+03    0.31917E-04   -0.14740E-03   386   0.843E-02    0.220E-01
RMM:   9    -0.145304757554E+03    0.37785E-03   -0.12935E-03   384   0.753E-02    0.155E-01
RMM:  10    -0.145304578033E+03    0.17952E-03   -0.21628E-04   216   0.443E-02    0.788E-02
RMM:  11    -0.145304548746E+03    0.29287E-04   -0.12820E-04   206   0.357E-02
   58 T=  2578. E= -.13464026E+03 F= -.14530455E+03 E0= -.14519701E+03  EK= 0.10664E+02 SP= 0.00E+00 SK= 0.00E+00
 bond charge predicted
 prediction of wavefunctions
       N       E                     dE             d eps       ncg     rms          rms(c)
DAV:   1    -0.145212357344E+03    0.92221E-01   -0.71345E+00   384   0.525E+00    0.408E-01
RMM:   2    -0.145241111171E+03   -0.28754E-01   -0.14556E-01   385   0.108E+00    0.133E+00
RMM:   3    -0.145228602015E+03    0.12509E-01   -0.21862E-02   454   0.335E-01    0.632E-01
RMM:   4    -0.145225641958E+03    0.29601E-02   -0.55968E-03   385   0.195E-01    0.383E-01
RMM:   5    -0.145224293540E+03    0.13484E-02   -0.13902E-03   384   0.898E-02    0.257E-01
RMM:   6    -0.145223801717E+03    0.49182E-03   -0.46996E-04   287   0.544E-02    0.190E-01
RMM:   7    -0.145223756880E+03    0.44837E-04   -0.63625E-04   347   0.625E-02
   59 T=  3079. E= -.13248632E+03 F= -.14522376E+03 E0= -.14511923E+03  EK= 0.12737E+02 SP= 0.00E+00 SK= 0.00E+00
 bond charge predicted
 prediction of wavefunctions
       N       E                     dE             d eps       ncg     rms          rms(c)
DAV:   1    -0.145145837196E+03    0.77965E-01   -0.11515E+01   384   0.666E+00    0.581E-01
RMM:   2    -0.145230651358E+03   -0.84814E-01   -0.24115E-01   385   0.130E+00    0.261E+00
RMM:   3    -0.145173525810E+03    0.57126E-01   -0.39851E-02   387   0.512E-01    0.910E-01
RMM:   4    -0.145166157632E+03    0.73682E-02   -0.13094E-02   385   0.292E-01    0.549E-01
RMM:   5    -0.145163918858E+03    0.22388E-02   -0.33567E-03   390   0.137E-01    0.377E-01
RMM:   6    -0.145162781957E+03    0.11369E-02   -0.10249E-03   385   0.758E-02    0.282E-01
RMM:   7    -0.145162310586E+03    0.47137E-03   -0.64182E-04   340   0.607E-02    0.221E-01
RMM:   8    -0.145162449386E+03   -0.13880E-03   -0.16594E-03   384   0.939E-02    0.266E-01
RMM:   9    -0.145162077149E+03    0.37224E-03   -0.18890E-03   385   0.937E-02    0.211E-01
RMM:  10    -0.145161680989E+03    0.39616E-03   -0.50256E-04   306   0.551E-02    0.100E-01
RMM:  11    -0.145161618576E+03    0.62413E-04   -0.15296E-04   213   0.385E-02
   60 T=  2909. E= -.13312790E+03 F= -.14516162E+03 E0= -.14505759E+03  EK= 0.12034E+02 SP= 0.00E+00 SK= 0.00E+00
 bond charge predicted
 prediction of wavefunctions
       N       E                     dE             d eps       ncg     rms          rms(c)
DAV:   1    -0.145071044152E+03    0.90637E-01   -0.67018E+00   384   0.519E+00    0.430E-01
RMM:   2    -0.145108930023E+03   -0.37886E-01   -0.15743E-01   385   0.116E+00    0.163E+00
RMM:   3    -0.145087561818E+03    0.21368E-01   -0.24229E-02   404   0.372E-01    0.591E-01
RMM:   4    -0.145084757460E+03    0.28044E-02   -0.61216E-03   385   0.210E-01    0.456E-01
RMM:   5    -0.145082882154E+03    0.18753E-02   -0.16607E-03   387   0.100E-01    0.234E-01
RMM:   6    -0.145082493406E+03    0.38875E-03   -0.45757E-04   283   0.520E-02    0.203E-01
RMM:   7    -0.145082323051E+03    0.17036E-03   -0.31534E-04   234   0.500E-02    0.172E-01
RMM:   8    -0.145082387669E+03   -0.64618E-04   -0.11571E-03   385   0.768E-02    0.200E-01
RMM:   9    -0.145082140699E+03    0.24697E-03   -0.10056E-03   384   0.697E-02    0.139E-01
RMM:  10    -0.145081978770E+03    0.16193E-03   -0.25587E-04   221   0.438E-02    0.598E-02
RMM:  11    -0.145081984174E+03   -0.54031E-05   -0.11318E-04   207   0.363E-02
   61 T=  3006. E= -.13264899E+03 F= -.14508198E+03 E0= -.14498037E+03  EK= 0.12433E+02 SP= 0.00E+00 SK= 0.00E+00
 bond charge predicted
 prediction of wavefunctions
       N       E                     dE             d eps       ncg     rms          rms(c)
DAV:   1    -0.144934648680E+03    0.14733E+00   -0.17405E+01   384   0.812E+00    0.789E-01
RMM:   2    -0.145063783085E+03   -0.12913E+00   -0.37813E-01   385   0.161E+00    0.306E+00
RMM:   3    -0.144972833926E+03    0.90949E-01   -0.64251E-02   386   0.617E-01    0.105E+00
RMM:   4    -0.144961382314E+03    0.11452E-01   -0.18029E-02   385   0.350E-01    0.620E-01
RMM:   5    -0.144958521791E+03    0.28605E-02   -0.48390E-03   390   0.163E-01    0.434E-01
RMM:   6    -0.144956481726E+03    0.20401E-02   -0.16269E-03   384   0.918E-02    0.236E-01
RMM:   7    -0.144956593281E+03   -0.11155E-03   -0.13182E-03   392   0.801E-02    0.293E-01
RMM:   8    -0.144957120574E+03   -0.52729E-03   -0.23999E-03   388   0.105E-01    0.388E-01
RMM:   9    -0.144955977942E+03    0.11426E-02   -0.11807E-03   382   0.757E-02    0.189E-01
RMM:  10    -0.144955631916E+03    0.34603E-03   -0.49721E-04   301   0.559E-02    0.911E-02
RMM:  11    -0.144955661185E+03   -0.29269E-04   -0.15526E-04   213   0.385E-02
   62 T=  2615. E= -.13413814E+03 F= -.14495566E+03 E0= -.14485845E+03  EK= 0.10818E+02 SP= 0.00E+00 SK= 0.00E+00
 bond charge predicted
 prediction of wavefunctions
       N       E                     dE             d eps       ncg     rms          rms(c)
DAV:   1    -0.144740753966E+03    0.21488E+00   -0.13852E+01   384   0.730E+00    0.661E-01
RMM:   2    -0.144878504696E+03   -0.13775E+00   -0.29252E-01   385   0.140E+00    0.345E+00
RMM:   3    -0.144772179552E+03    0.10633E+00   -0.48395E-02   389   0.534E-01    0.904E-01
RMM:   4    -0.144762470638E+03    0.97089E-02   -0.13947E-02   385   0.309E-01    0.506E-01
RMM:   5    -0.144760136207E+03    0.23344E-02   -0.33591E-03   390   0.135E-01    0.327E-01
RMM:   6    -0.144758984770E+03    0.11514E-02   -0.11266E-03   389   0.753E-02    0.224E-01
RMM:   7    -0.144759028677E+03   -0.43907E-04   -0.95470E-04   389   0.683E-02
   63 T=  2671. E= -.13371168E+03 F= -.14475903E+03 E0= -.14466527E+03  EK= 0.11047E+02 SP= 0.00E+00 SK= 0.00E+00
 bond charge predicted
 prediction of wavefunctions
       N       E                     dE             d eps       ncg     rms          rms(c)
DAV:   1    -0.144597421928E+03    0.16156E+00   -0.10392E+01   384   0.637E+00    0.746E-01
RMM:   2    -0.144798991251E+03   -0.20157E+00   -0.27258E-01   387   0.129E+00    0.420E+00
RMM:   3    -0.144630669886E+03    0.16832E+00   -0.58580E-02   385   0.613E-01    0.119E+00
RMM:   4    -0.144611718467E+03    0.18951E-01   -0.21240E-02   386   0.382E-01    0.445E-01
RMM:   5    -0.144610478141E+03    0.12403E-02   -0.45858E-03   396   0.153E-01    0.427E-01
RMM:   6    -0.144609102298E+03    0.13758E-02   -0.13791E-03   390   0.817E-02    0.274E-01
RMM:   7    -0.144608672223E+03    0.43008E-03   -0.83910E-04   362   0.700E-02    0.222E-01
RMM:   8    -0.144608700773E+03   -0.28550E-04   -0.11164E-03   386   0.777E-02    0.232E-01
RMM:   9    -0.144608300682E+03    0.40009E-03   -0.15122E-03   384   0.842E-02    0.155E-01
RMM:  10    -0.144608085816E+03    0.21487E-03   -0.32397E-04   241   0.469E-02    0.840E-02
RMM:  11    -0.144608037483E+03    0.48333E-04   -0.14987E-04   210   0.411E-02
   64 T=  2724. E= -.13334150E+03 F= -.14460804E+03 E0= -.14451580E+03  EK= 0.11267E+02 SP= 0.00E+00 SK= 0.00E+00
 bond charge predicted
 prediction of wavefunctions
       N       E                     dE             d eps       ncg     rms          rms(c)
DAV:   1    -0.144438914628E+03    0.16917E+00   -0.39262E+00   384   0.407E+00    0.490E-01
RMM:   2    -0.144532009385E+03   -0.93095E-01   -0.12608E-01   385   0.102E+00    0.312E+00
RMM:   3    -0.144452755346E+03    0.79254E-01   -0.27607E-02   385   0.433E-01    0.661E-01
RMM:   4    -0.144447069822E+03    0.56855E-02   -0.93907E-03   385   0.259E-01    0.365E-01
RMM:   5    -0.144446271252E+03    0.79857E-03   -0.21043E-03   391   0.108E-01    0.302E-01
RMM:   6    -0.144445587805E+03    0.68345E-03   -0.67654E-04   345   0.616E-02    0.216E-01
RMM:   7    -0.144445237717E+03    0.35009E-03   -0.42092E-04   273   0.557E-02    0.140E-01
RMM:   8    -0.144445432143E+03   -0.19443E-03   -0.69971E-04   369   0.634E-02    0.194E-01
RMM:   9    -0.144445131512E+03    0.30063E-03   -0.68794E-04   360   0.591E-02    0.994E-02
RMM:  10    -0.144445068426E+03    0.63086E-04   -0.14207E-04   212   0.350E-02
   65 T=  2693. E= -.13330412E+03 F= -.14444507E+03 E0= -.14435250E+03  EK= 0.11141E+02 SP= 0.00E+00 SK= 0.00E+00
 bond charge predicted
 prediction of wavefunctions
       N       E                     dE             d eps       ncg     rms          rms(c)
DAV:   1    -0.144431778794E+03    0.13353E-01   -0.10391E+01   384   0.634E+00    0.613E-01
RMM:   2    -0.144517254601E+03   -0.85476E-01   -0.22854E-01   385   0.130E+00    0.269E+00
RMM:   3    -0.144457461231E+03    0.59793E-01   -0.40102E-02   391   0.483E-01    0.952E-01
RMM:   4    -0.144449303631E+03    0.81576E-02   -0.13031E-02   385   0.299E-01    0.553E-01
RMM:   5    -0.144447032900E+03    0.22707E-02   -0.36934E-03   384   0.144E-01    0.366E-01
RMM:   6    -0.144445992891E+03    0.10400E-02   -0.11393E-03   385   0.798E-02    0.273E-01
RMM:   7    -0.144445526725E+03    0.46617E-03   -0.58297E-04   316   0.582E-02    0.200E-01
RMM:   8    -0.144445602687E+03   -0.75962E-04   -0.11999E-03   385   0.822E-02    0.227E-01
RMM:   9    -0.144445301447E+03    0.30124E-03   -0.12598E-03   385   0.763E-02    0.178E-01
RMM:  10    -0.144445043728E+03    0.25772E-03   -0.31192E-04   240   0.464E-02    0.993E-02
RMM:  11    -0.144444976240E+03    0.67488E-04   -0.15289E-04   212   0.403E-02
   66 T=  2580. E= -.13377333E+03 F= -.14444498E+03 E0= -.14435201E+03  EK= 0.10672E+02 SP= 0.00E+00 SK= 0.00E+00
 bond charge predicted
 prediction of wavefunctions
       N       E                     dE             d eps       ncg     rms          rms(c)
DAV:   1    -0.144334958168E+03    0.11009E+00   -0.11873E+01   384   0.670E+00    0.502E-01
RMM:   2    -0.144369988791E+03   -0.35031E-01   -0.22830E-01   385   0.131E+00    0.124E+00
RMM:   3    -0.144358862774E+03    0.11126E-01   -0.33043E-02   487   0.382E-01    0.726E-01
RMM:   4    -0.144355213141E+03    0.36496E-02   -0.57577E-03   386   0.194E-01    0.476E-01
RMM:   5    -0.144353351719E+03    0.18614E-02   -0.21213E-03   384   0.111E-01    0.334E-01
RMM:   6    -0.144352399959E+03    0.95176E-03   -0.87225E-04   379   0.709E-02    0.211E-01
RMM:   7    -0.144352709324E+03   -0.30937E-03   -0.80962E-04   373   0.657E-02    0.312E-01
[...]
 1471 T=    78. E= -.15011432E+03 F= -.15043614E+03 E0= -.15041616E+03  EK= 0.32182E+00 SP= 0.00E+00 SK= 0.00E+00
 bond charge predicted
 prediction of wavefunctions
       N       E                     dE             d eps       ncg     rms          rms(c)
DAV:   1    -0.150456693223E+03   -0.20482E-01   -0.16481E-01   384   0.822E-01    0.116E-01
RMM:   2    -0.150461307745E+03   -0.46145E-02   -0.58622E-03   393   0.179E-01    0.610E-01
RMM:   3    -0.150457231324E+03    0.40764E-02   -0.16051E-03   383   0.106E-01    0.129E-01
RMM:   4    -0.150456883616E+03    0.34771E-03   -0.43150E-04   291   0.587E-02    0.781E-02
RMM:   5    -0.150456837825E+03    0.45791E-04   -0.92925E-05   208   0.286E-02
 1472 T=    82. E= -.15011619E+03 F= -.15045684E+03 E0= -.15043704E+03  EK= 0.34065E+00 SP= 0.00E+00 SK= 0.00E+00
 bond charge predicted
 prediction of wavefunctions
       N       E                     dE             d eps       ncg     rms          rms(c)
DAV:   1    -0.150476345847E+03   -0.19462E-01   -0.27486E-01   384   0.105E+00    0.975E-02
RMM:   2    -0.150478975506E+03   -0.26297E-02   -0.60933E-03   389   0.198E-01    0.434E-01
RMM:   3    -0.150476981343E+03    0.19942E-02   -0.11528E-03   384   0.925E-02    0.121E-01
RMM:   4    -0.150476774581E+03    0.20676E-03   -0.30124E-04   256   0.490E-02    0.847E-02
RMM:   5    -0.150476701589E+03    0.72992E-04   -0.90657E-05   207   0.304E-02
 1473 T=    87. E= -.15011817E+03 F= -.15047670E+03 E0= -.15045671E+03  EK= 0.35854E+00 SP= 0.00E+00 SK= 0.00E+00
 bond charge predicted
 prediction of wavefunctions
       N       E                     dE             d eps       ncg     rms          rms(c)
DAV:   1    -0.150501267451E+03   -0.24493E-01   -0.18766E-01   384   0.885E-01    0.986E-02
RMM:   2    -0.150503344981E+03   -0.20775E-02   -0.47832E-03   388   0.168E-01    0.396E-01
RMM:   3    -0.150501743015E+03    0.16020E-02   -0.10164E-03   382   0.873E-02    0.115E-01
RMM:   4    -0.150501534399E+03    0.20862E-03   -0.28680E-04   250   0.478E-02    0.708E-02
RMM:   5    -0.150501511620E+03    0.22780E-04   -0.88747E-05   207   0.309E-02
 1474 T=    94. E= -.15011472E+03 F= -.15050151E+03 E0= -.15048184E+03  EK= 0.38679E+00 SP= 0.00E+00 SK= 0.00E+00
 bond charge predicted
 prediction of wavefunctions
       N       E                     dE             d eps       ncg     rms          rms(c)
DAV:   1    -0.150522532649E+03   -0.20998E-01   -0.28548E-01   384   0.106E+00    0.109E-01
RMM:   2    -0.150524692957E+03   -0.21603E-02   -0.68566E-03   385   0.208E-01    0.363E-01
RMM:   3    -0.150523105151E+03    0.15878E-02   -0.11349E-03   384   0.849E-02    0.114E-01
RMM:   4    -0.150522918872E+03    0.18628E-03   -0.28424E-04   249   0.471E-02    0.818E-02
RMM:   5    -0.150522863184E+03    0.55688E-04   -0.91409E-05   207   0.308E-02
 1475 T=    87. E= -.15016452E+03 F= -.15052286E+03 E0= -.15050280E+03  EK= 0.35835E+00 SP= 0.00E+00 SK= 0.00E+00
 bond charge predicted
 prediction of wavefunctions
       N       E                     dE             d eps       ncg     rms          rms(c)
DAV:   1    -0.150539751061E+03   -0.16832E-01   -0.11627E-01   384   0.708E-01    0.949E-02
RMM:   2    -0.150542347427E+03   -0.25964E-02   -0.38046E-03   391   0.153E-01    0.469E-01
RMM:   3    -0.150540170632E+03    0.21768E-02   -0.93903E-04   376   0.831E-02    0.116E-01
RMM:   4    -0.150539911244E+03    0.25939E-03   -0.32469E-04   259   0.524E-02    0.670E-02
RMM:   5    -0.150539885838E+03    0.25405E-04   -0.82412E-05   207   0.287E-02
 1476 T=    84. E= -.15019298E+03 F= -.15053989E+03 E0= -.15052001E+03  EK= 0.34691E+00 SP= 0.00E+00 SK= 0.00E+00
 bond charge predicted
 prediction of wavefunctions
       N       E                     dE             d eps       ncg     rms          rms(c)
DAV:   1    -0.150554987182E+03   -0.15076E-01   -0.14912E-01   384   0.784E-01    0.790E-02
RMM:   2    -0.150556480032E+03   -0.14928E-02   -0.38242E-03   385   0.156E-01    0.340E-01
RMM:   3    -0.150555409019E+03    0.10710E-02   -0.64742E-04   331   0.700E-02    0.105E-01
RMM:   4    -0.150555217182E+03    0.19184E-03   -0.24022E-04   231   0.481E-02    0.572E-02
RMM:   5    -0.150555185490E+03    0.31693E-04   -0.68849E-05   198   0.277E-02
 1477 T=    74. E= -.15025110E+03 F= -.15055519E+03 E0= -.15053506E+03  EK= 0.30409E+00 SP= 0.00E+00 SK= 0.00E+00
 bond charge predicted
 prediction of wavefunctions
       N       E                     dE             d eps       ncg     rms          rms(c)
DAV:   1    -0.150570961983E+03   -0.15745E-01   -0.17975E-01   384   0.850E-01    0.816E-02
RMM:   2    -0.150572110278E+03   -0.11483E-02   -0.42644E-03   385   0.170E-01    0.260E-01
RMM:   3    -0.150571318392E+03    0.79189E-03   -0.64077E-04   342   0.610E-02    0.817E-02
RMM:   4    -0.150571233944E+03    0.84447E-04   -0.15523E-04   214   0.399E-02
 1478 T=    72. E= -.15027159E+03 F= -.15057123E+03 E0= -.15055133E+03  EK= 0.29965E+00 SP= 0.00E+00 SK= 0.00E+00
 bond charge predicted
 prediction of wavefunctions
       N       E                     dE             d eps       ncg     rms          rms(c)
DAV:   1    -0.150590287085E+03   -0.18969E-01   -0.15260E-01   384   0.795E-01    0.963E-02
RMM:   2    -0.150592747359E+03   -0.24603E-02   -0.44047E-03   388   0.162E-01    0.452E-01
RMM:   3    -0.150590736090E+03    0.20113E-02   -0.97708E-04   381   0.852E-02    0.120E-01
RMM:   4    -0.150590486314E+03    0.24978E-03   -0.31071E-04   256   0.505E-02    0.710E-02
RMM:   5    -0.150590442539E+03    0.43775E-04   -0.88832E-05   207   0.293E-02
 1479 T=    51. E= -.15037890E+03 F= -.15059044E+03 E0= -.15057023E+03  EK= 0.21154E+00 SP= 0.00E+00 SK= 0.00E+00
 bond charge predicted
 prediction of wavefunctions
       N       E                     dE             d eps       ncg     rms          rms(c)
DAV:   1    -0.150602540716E+03   -0.12054E-01   -0.29780E-01   384   0.108E+00    0.104E-01
RMM:   2    -0.150605428496E+03   -0.28878E-02   -0.64902E-03   387   0.198E-01    0.462E-01
RMM:   3    -0.150603229735E+03    0.21988E-02   -0.11887E-03   383   0.899E-02    0.126E-01
RMM:   4    -0.150602956575E+03    0.27316E-03   -0.34447E-04   267   0.526E-02    0.716E-02
RMM:   5    -0.150602914135E+03    0.42440E-04   -0.83805E-05   207   0.287E-02
 1480 T=    49. E= -.15040210E+03 F= -.15060291E+03 E0= -.15058281E+03  EK= 0.20081E+00 SP= 0.00E+00 SK= 0.00E+00
 bond charge predicted
 prediction of wavefunctions
       N       E                     dE             d eps       ncg     rms          rms(c)
DAV:   1    -0.150615193761E+03   -0.12237E-01   -0.20702E-01   384   0.901E-01    0.806E-02
RMM:   2    -0.150615917809E+03   -0.72405E-03   -0.40434E-03   385   0.161E-01    0.189E-01
RMM:   3    -0.150615541243E+03    0.37657E-03   -0.51204E-04   302   0.624E-02    0.835E-02
RMM:   4    -0.150615491222E+03    0.50021E-04   -0.16549E-04   212   0.410E-02
 1481 T=    47. E= -.15041965E+03 F= -.15061549E+03 E0= -.15059528E+03  EK= 0.19584E+00 SP= 0.00E+00 SK= 0.00E+00
 bond charge predicted
 prediction of wavefunctions
       N       E                     dE             d eps       ncg     rms          rms(c)
DAV:   1    -0.150629382647E+03   -0.13841E-01   -0.13529E-01   384   0.733E-01    0.848E-02
RMM:   2    -0.150630334160E+03   -0.95151E-03   -0.34509E-03   385   0.143E-01    0.247E-01
RMM:   3    -0.150629660493E+03    0.67367E-03   -0.61084E-04   330   0.666E-02    0.921E-02
RMM:   4    -0.150629556298E+03    0.10419E-03   -0.18062E-04   217   0.410E-02    0.628E-02
RMM:   5    -0.150629526852E+03    0.29446E-04   -0.71073E-05   201   0.268E-02
 1482 T=    48. E= -.15043064E+03 F= -.15062953E+03 E0= -.15060952E+03  EK= 0.19889E+00 SP= 0.00E+00 SK= 0.00E+00
 bond charge predicted
 prediction of wavefunctions
       N       E                     dE             d eps       ncg     rms          rms(c)
DAV:   1    -0.150640844956E+03   -0.11289E-01   -0.11798E-01   384   0.695E-01    0.816E-02
RMM:   2    -0.150642942401E+03   -0.20974E-02   -0.33284E-03   386   0.141E-01    0.419E-01
RMM:   3    -0.150641233673E+03    0.17087E-02   -0.77247E-04   362   0.746E-02    0.933E-02
RMM:   4    -0.150641013911E+03    0.21976E-03   -0.23283E-04   234   0.464E-02    0.564E-02
RMM:   5    -0.150640986841E+03    0.27070E-04   -0.60532E-05   199   0.240E-02
 1483 T=    55. E= -.15041162E+03 F= -.15064099E+03 E0= -.15062073E+03  EK= 0.22937E+00 SP= 0.00E+00 SK= 0.00E+00
 bond charge predicted
 prediction of wavefunctions
       N       E                     dE             d eps       ncg     rms          rms(c)
DAV:   1    -0.150654723497E+03   -0.13710E-01   -0.75555E-02   384   0.562E-01    0.667E-02
RMM:   2    -0.150655578900E+03   -0.85540E-03   -0.21167E-03   386   0.114E-01    0.258E-01
RMM:   3    -0.150654929908E+03    0.64899E-03   -0.35418E-04   262   0.533E-02    0.828E-02
RMM:   4    -0.150654835721E+03    0.94188E-04   -0.16117E-04   215   0.416E-02
 1484 T=    50. E= -.15044618E+03 F= -.15065484E+03 E0= -.15063443E+03  EK= 0.20866E+00 SP= 0.00E+00 SK= 0.00E+00
 bond charge predicted
 prediction of wavefunctions
       N       E                     dE             d eps       ncg     rms          rms(c)
DAV:   1    -0.150661994336E+03   -0.70644E-02   -0.20954E-01   384   0.900E-01    0.981E-02
RMM:   2    -0.150664400155E+03   -0.24058E-02   -0.50986E-03   387   0.163E-01    0.404E-01
RMM:   3    -0.150662382623E+03    0.20175E-02   -0.10609E-03   383   0.838E-02    0.801E-02
RMM:   4    -0.150662225109E+03    0.15751E-03   -0.21275E-04   226   0.417E-02    0.544E-02
RMM:   5    -0.150662200927E+03    0.24183E-04   -0.60380E-05   200   0.255E-02
 1485 T=    53. E= -.15044326E+03 F= -.15066220E+03 E0= -.15064201E+03  EK= 0.21895E+00 SP= 0.00E+00 SK= 0.00E+00
 bond charge predicted
 prediction of wavefunctions
       N       E                     dE             d eps       ncg     rms          rms(c)
DAV:   1    -0.150670378773E+03   -0.81537E-02   -0.35402E-02   384   0.419E-01    0.643E-02
RMM:   2    -0.150671433273E+03   -0.10545E-02   -0.15212E-03   397   0.881E-02    0.300E-01
RMM:   3    -0.150670512583E+03    0.92069E-03   -0.36533E-04   262   0.558E-02    0.691E-02
RMM:   4    -0.150670419702E+03    0.92881E-04   -0.15856E-04   215   0.409E-02
 1486 T=    53. E= -.15045098E+03 F= -.15067042E+03 E0= -.15065039E+03  EK= 0.21944E+00 SP= 0.00E+00 SK= 0.00E+00
 bond charge predicted
 prediction of wavefunctions
       N       E                     dE             d eps       ncg     rms          rms(c)
DAV:   1    -0.150680985827E+03   -0.10473E-01   -0.10764E-01   384   0.672E-01    0.722E-02
RMM:   2    -0.150682665395E+03   -0.16796E-02   -0.28154E-03   393   0.130E-01    0.363E-01
RMM:   3    -0.150681292893E+03    0.13725E-02   -0.63995E-04   348   0.704E-02    0.822E-02
RMM:   4    -0.150681154061E+03    0.13883E-03   -0.19107E-04   221   0.428E-02    0.558E-02
RMM:   5    -0.150681127257E+03    0.26804E-04   -0.56069E-05   197   0.236E-02
 1487 T=    46. E= -.15049028E+03 F= -.15068113E+03 E0= -.15066087E+03  EK= 0.19084E+00 SP= 0.00E+00 SK= 0.00E+00
 bond charge predicted
 prediction of wavefunctions
       N       E                     dE             d eps       ncg     rms          rms(c)
DAV:   1    -0.150688751357E+03   -0.75973E-02   -0.21248E-01   384   0.905E-01    0.795E-02
RMM:   2    -0.150689654190E+03   -0.90283E-03   -0.41986E-03   385   0.165E-01    0.214E-01
RMM:   3    -0.150689114629E+03    0.53956E-03   -0.58397E-04   338   0.580E-02    0.764E-02
RMM:   4    -0.150689047588E+03    0.67041E-04   -0.13256E-04   212   0.368E-02
 1488 T=    46. E= -.15049733E+03 F= -.15068905E+03 E0= -.15066898E+03  EK= 0.19172E+00 SP= 0.00E+00 SK= 0.00E+00
 bond charge predicted
 prediction of wavefunctions
       N       E                     dE             d eps       ncg     rms          rms(c)
DAV:   1    -0.150694492425E+03   -0.53778E-02   -0.11090E-01   384   0.667E-01    0.890E-02
RMM:   2    -0.150696649992E+03   -0.21576E-02   -0.32705E-03   393   0.136E-01    0.432E-01
RMM:   3    -0.150694850459E+03    0.17995E-02   -0.81953E-04   368   0.805E-02    0.969E-02
RMM:   4    -0.150694611834E+03    0.23862E-03   -0.27244E-04   245   0.486E-02    0.634E-02
RMM:   5    -0.150694590019E+03    0.21815E-04   -0.78332E-05   203   0.269E-02
 1489 T=    44. E= -.15051422E+03 F= -.15069459E+03 E0= -.15067437E+03  EK= 0.18037E+00 SP= 0.00E+00 SK= 0.00E+00
 bond charge predicted
 prediction of wavefunctions
       N       E                     dE             d eps       ncg     rms          rms(c)
DAV:   1    -0.150702802870E+03   -0.81910E-02   -0.96760E-02   384   0.623E-01    0.736E-02
RMM:   2    -0.150704449002E+03   -0.16461E-02   -0.26607E-03   392   0.124E-01    0.363E-01
RMM:   3    -0.150703097895E+03    0.13511E-02   -0.59771E-04   327   0.694E-02    0.878E-02
RMM:   4    -0.150702924268E+03    0.17363E-03   -0.19382E-04   223   0.435E-02    0.474E-02
RMM:   5    -0.150702909169E+03    0.15099E-04   -0.52107E-05   197   0.229E-02
 1490 T=    42. E= -.15053031E+03 F= -.15070291E+03 E0= -.15068293E+03  EK= 0.17260E+00 SP= 0.00E+00 SK= 0.00E+00
 bond charge predicted
 prediction of wavefunctions
       N       E                     dE             d eps       ncg     rms          rms(c)
DAV:   1    -0.150709094500E+03   -0.61702E-02   -0.23290E-01   384   0.940E-01    0.751E-02
RMM:   2    -0.150709752637E+03   -0.65814E-03   -0.42600E-03   385   0.161E-01    0.158E-01
RMM:   3    -0.150709470326E+03    0.28231E-03   -0.46651E-04   293   0.544E-02    0.801E-02
RMM:   4    -0.150709411379E+03    0.58947E-04   -0.13454E-04   209   0.378E-02
 1491 T=    40. E= -.15054357E+03 F= -.15070941E+03 E0= -.15068944E+03  EK= 0.16584E+00 SP= 0.00E+00 SK= 0.00E+00
 bond charge predicted
 prediction of wavefunctions
       N       E                     dE             d eps       ncg     rms          rms(c)
DAV:   1    -0.150716102505E+03   -0.66322E-02   -0.77650E-02   384   0.569E-01    0.765E-02
RMM:   2    -0.150716856171E+03   -0.75367E-03   -0.22774E-03   386   0.122E-01    0.233E-01
RMM:   3    -0.150716296837E+03    0.55933E-03   -0.40818E-04   273   0.572E-02    0.911E-02
RMM:   4    -0.150716192632E+03    0.10420E-03   -0.17547E-04   216   0.430E-02    0.606E-02
RMM:   5    -0.150716165780E+03    0.26852E-04   -0.70293E-05   199   0.258E-02
 1492 T=    37. E= -.15056268E+03 F= -.15071617E+03 E0= -.15069655E+03  EK= 0.15349E+00 SP= 0.00E+00 SK= 0.00E+00
 bond charge predicted
 prediction of wavefunctions
       N       E                     dE             d eps       ncg     rms          rms(c)
DAV:   1    -0.150722244376E+03   -0.60517E-02   -0.16370E-01   384   0.785E-01    0.762E-02
RMM:   2    -0.150724070131E+03   -0.18258E-02   -0.35535E-03   388   0.141E-01    0.377E-01
RMM:   3    -0.150722651225E+03    0.14189E-02   -0.70760E-04   348   0.728E-02    0.100E-01
RMM:   4    -0.150722451900E+03    0.19932E-03   -0.23001E-04   230   0.456E-02    0.472E-02
RMM:   5    -0.150722428159E+03    0.23741E-04   -0.58868E-05   200   0.252E-02
 1493 T=    36. E= -.15057218E+03 F= -.15072243E+03 E0= -.15070295E+03  EK= 0.15025E+00 SP= 0.00E+00 SK= 0.00E+00
 bond charge predicted
 prediction of wavefunctions
       N       E                     dE             d eps       ncg     rms          rms(c)
DAV:   1    -0.150728735628E+03   -0.62837E-02   -0.10816E-01   384   0.653E-01    0.638E-02
RMM:   2    -0.150729522684E+03   -0.78706E-03   -0.22937E-03   385   0.121E-01    0.240E-01
RMM:   3    -0.150728984350E+03    0.53833E-03   -0.33752E-04   251   0.525E-02    0.774E-02
RMM:   4    -0.150728892086E+03    0.92264E-04   -0.16481E-04   214   0.435E-02
 1494 T=    31. E= -.15059970E+03 F= -.15072889E+03 E0= -.15070970E+03  EK= 0.12919E+00 SP= 0.00E+00 SK= 0.00E+00
 bond charge predicted
 prediction of wavefunctions
       N       E                     dE             d eps       ncg     rms          rms(c)
DAV:   1    -0.150732525282E+03   -0.35409E-02   -0.16327E-01   384   0.796E-01    0.830E-02
RMM:   2    -0.150734163564E+03   -0.16383E-02   -0.36845E-03   385   0.142E-01    0.358E-01
RMM:   3    -0.150732903086E+03    0.12605E-02   -0.71101E-04   355   0.719E-02    0.944E-02
RMM:   4    -0.150732738295E+03    0.16479E-03   -0.20463E-04   222   0.431E-02    0.621E-02
RMM:   5    -0.150732709651E+03    0.28644E-04   -0.67678E-05   200   0.266E-02
 1495 T=    30. E= -.15060890E+03 F= -.15073271E+03 E0= -.15071392E+03  EK= 0.12381E+00 SP= 0.00E+00 SK= 0.00E+00
 bond charge predicted
 prediction of wavefunctions
       N       E                     dE             d eps       ncg     rms          rms(c)
DAV:   1    -0.150738813819E+03   -0.60755E-02   -0.23520E-02   384   0.339E-01    0.556E-02
RMM:   2    -0.150739542587E+03   -0.72877E-03   -0.10799E-03   388   0.811E-02    0.237E-01
RMM:   3    -0.150738881322E+03    0.66127E-03   -0.22650E-04   221   0.436E-02    0.541E-02
RMM:   4    -0.150738836500E+03    0.44821E-04   -0.10473E-04   209   0.341E-02
 1496 T=    28. E= -.15062280E+03 F= -.15073884E+03 E0= -.15072013E+03  EK= 0.11604E+00 SP= 0.00E+00 SK= 0.00E+00
 bond charge predicted
 prediction of wavefunctions
       N       E                     dE             d eps       ncg     rms          rms(c)
DAV:   1    -0.150746864630E+03   -0.79833E-02   -0.55470E-02   384   0.480E-01    0.648E-02
RMM:   2    -0.150748198306E+03   -0.13337E-02   -0.18373E-03   390   0.105E-01    0.333E-01
RMM:   3    -0.150747082493E+03    0.11158E-02   -0.43774E-04   291   0.568E-02    0.791E-02
RMM:   4    -0.150746928581E+03    0.15391E-03   -0.16523E-04   217   0.428E-02    0.403E-02
RMM:   5    -0.150746912845E+03    0.15736E-04   -0.40812E-05   194   0.194E-02
 1497 T=    25. E= -.15064477E+03 F= -.15074691E+03 E0= -.15072827E+03  EK= 0.10215E+00 SP= 0.00E+00 SK= 0.00E+00
 bond charge predicted
 prediction of wavefunctions
       N       E                     dE             d eps       ncg     rms          rms(c)
DAV:   1    -0.150756018648E+03   -0.90901E-02   -0.97843E-02   384   0.625E-01    0.580E-02
RMM:   2    -0.150756513026E+03   -0.49438E-03   -0.20916E-03   385   0.117E-01    0.163E-01
RMM:   3    -0.150756203452E+03    0.30957E-03   -0.25224E-04   220   0.451E-02    0.688E-02
RMM:   4    -0.150756157807E+03    0.45644E-04   -0.11925E-04   207   0.384E-02
 1498 T=    25. E= -.15065189E+03 F= -.15075616E+03 E0= -.15073757E+03  EK= 0.10426E+00 SP= 0.00E+00 SK= 0.00E+00
 bond charge predicted
 prediction of wavefunctions
       N       E                     dE             d eps       ncg     rms          rms(c)
DAV:   1    -0.150767283431E+03   -0.11080E-01   -0.51462E-02   384   0.466E-01    0.725E-02
RMM:   2    -0.150769063511E+03   -0.17801E-02   -0.18340E-03   396   0.104E-01    0.399E-01
RMM:   3    -0.150767507841E+03    0.15557E-02   -0.57185E-04   318   0.656E-02    0.755E-02
RMM:   4    -0.150767329042E+03    0.17880E-03   -0.18464E-04   221   0.442E-02    0.451E-02
RMM:   5    -0.150767317567E+03    0.11476E-04   -0.52068E-05   196   0.217E-02
 1499 T=    25. E= -.15066192E+03 F= -.15076732E+03 E0= -.15074913E+03  EK= 0.10540E+00 SP= 0.00E+00 SK= 0.00E+00
 bond charge predicted
 prediction of wavefunctions
       N       E                     dE             d eps       ncg     rms          rms(c)
DAV:   1    -0.150775544897E+03   -0.82159E-02   -0.85637E-02   384   0.588E-01    0.633E-02
RMM:   2    -0.150776686655E+03   -0.11418E-02   -0.21104E-03   391   0.108E-01    0.299E-01
RMM:   3    -0.150775780508E+03    0.90615E-03   -0.43544E-04   283   0.613E-02    0.719E-02
RMM:   4    -0.150775669214E+03    0.11129E-03   -0.15984E-04   216   0.413E-02    0.432E-02
RMM:   5    -0.150775657620E+03    0.11595E-04   -0.42421E-05   193   0.212E-02
 1500 T=    19. E= -.15069527E+03 F= -.15077566E+03 E0= -.15075733E+03  EK= 0.80383E-01 SP= 0.00E+00 SK= 0.00E+00
 bond charge predicted
 prediction of wavefunctions
 wavefunctions rotated
