Pt cube particle                        
           1
    16.000000    0.000000    0.000000
     0.000000   16.000000    0.000000
     0.000000    0.000000   16.000000
   Pt
  32
Direct configuration=     1
   0.31197646  0.31235325  0.31233077
   0.43792407  0.43678050  0.31197427
   0.43651808  0.31305896  0.43674737
   0.31213214  0.43767750  0.43785895
   0.56280314  0.31270623  0.31207222
   0.68661417  0.43757620  0.31288962
   0.68628510  0.31223900  0.43642903
   0.56081818  0.43703361  0.43675292
   0.31240791  0.56218671  0.31284403
   0.43690204  0.68720513  0.31254820
   0.43720192  0.56157310  0.43692629
   0.31293988  0.68675627  0.43677009
   0.56276647  0.56202487  0.31232261
   0.68663439  0.68645814  0.31191424
   0.68627175  0.56176752  0.43632849
   0.56273869  0.68672684  0.43752059
   0.31306113  0.31202991  0.56221114
   0.43744370  0.43615561  0.56209012
   0.43705957  0.31220419  0.68665373
   0.31299992  0.43750715  0.68720779
   0.56225039  0.31239358  0.56188551
   0.68654172  0.43740363  0.56194379
   0.68719354  0.31175290  0.68610262
   0.56223102  0.43803215  0.68651488
   0.31255580  0.56175347  0.56304604
   0.43645960  0.68733784  0.56218436
   0.43667454  0.56122981  0.68702941
   0.31249793  0.68745296  0.68766813
   0.56189097  0.56180365  0.56234834
   0.68674021  0.68667077  0.56199805
   0.68740752  0.56246108  0.68692505
   0.56105803  0.68668749  0.68696135
Direct configuration=     2
   0.31138177  0.31244830  0.31254398
   0.43870301  0.43634949  0.31151833
   0.43589178  0.31371120  0.43625827
   0.31192678  0.43814221  0.43848033
   0.56366400  0.31301633  0.31172589
   0.68647660  0.43794550  0.31335951
   0.68581762  0.31208264  0.43562841
   0.55970129  0.43685690  0.43627284
   0.31262680  0.56174911  0.31343880
   0.43666698  0.68758913  0.31267751
   0.43702044  0.56243973  0.43634497
   0.31355318  0.68669143  0.43631031
   0.56359555  0.56204741  0.31221471
   0.68651294  0.68609258  0.31141201
   0.68705663  0.56133773  0.43612063
   0.56354007  0.68664444  0.43780533
   0.31201675  0.31219845  0.56259308
   0.43774407  0.43510179  0.56215093
   0.43708979  0.31209120  0.68665263
   0.31367143  0.43780749  0.68757156
   0.56256568  0.31238075  0.56174476
   0.68634184  0.43759469  0.56185995
   0.68697476  0.31121579  0.68603816
   0.56252640  0.43885100  0.68619695
   0.31277348  0.56150402  0.56406334
   0.43577620  0.68786491  0.56234085
   0.43620566  0.56045669  0.68722540
   0.31236930  0.68719907  0.68773680
   0.56184491  0.56160322  0.56266674
   0.68672740  0.68652044  0.56196269
   0.68806221  0.56291247  0.68700648
   0.56017471  0.68655389  0.68707784
Direct configuration=     3
   0.31132744  0.31262620  0.31255291
   0.43952886  0.43589571  0.31101417
   0.43531414  0.31434669  0.43571216
   0.31177916  0.43858302  0.43904405
   0.56457323  0.31332186  0.31134222
   0.68637433  0.43829647  0.31379173
   0.68538442  0.31192241  0.43477747
   0.55864087  0.43665913  0.43573978
   0.31291479  0.56128610  0.31399610
   0.43648841  0.68793448  0.31277023
   0.43688962  0.56328662  0.43571066
   0.31423567  0.68658798  0.43580042
   0.56447714  0.56205190  0.31205853
   0.68690820  0.68635476  0.31100175
   0.68788735  0.56088932  0.43585838
   0.56288762  0.68732371  0.43778896
   0.31104244  0.31236359  0.56291752
   0.43809371  0.43402890  0.56215855
   0.43705755  0.31128240  0.68691867
   0.31441121  0.43808894  0.68786432
   0.56293613  0.31235317  0.56155407
   0.68531338  0.43728922  0.56186148
   0.68653961  0.31138506  0.68593912
   0.56287659  0.43964397  0.68581959
   0.31304955  0.56123669  0.56502705
   0.43588951  0.68792482  0.56319456
   0.43578730  0.55966627  0.68736108
   0.31231375  0.68690355  0.68772971
   0.56185106  0.56138478  0.56293020
   0.68701232  0.68725722  0.56207047
   0.68787481  0.56244417  0.68757220
   0.55933981  0.68638089  0.68712189
Direct configuration=     4
   0.31136165  0.31274378  0.31255273
   0.43954019  0.43665863  0.31127965
   0.43479978  0.31490496  0.43513266
   0.31170525  0.43893908  0.43957431
   0.56554673  0.31356169  0.31094469
   0.68632375  0.43856859  0.31420939
   0.68500182  0.31169725  0.43390035
   0.55765314  0.43638199  0.43517841
   0.31328685  0.56073721  0.31453977
   0.43638170  0.68818114  0.31285050
   0.43682559  0.56405199  0.43504874
   0.31500310  0.68638589  0.43526468
   0.56470570  0.56190863  0.31191250
   0.68735014  0.68651496  0.31058275
   0.68776366  0.56055970  0.43595231
   0.56230315  0.68791359  0.43774014
   0.31015345  0.31246489  0.56320882
   0.43850748  0.43287754  0.56213719
   0.43709608  0.31040947  0.68713709
   0.31523456  0.43828983  0.68811009
   0.56337633  0.31224979  0.56133704
   0.68434699  0.43689986  0.56183418
   0.68615095  0.31149357  0.68578968
   0.56329635  0.44035028  0.68540842
   0.31340008  0.56089120  0.56596096
   0.43606919  0.68789472  0.56402007
   0.43543573  0.55879881  0.68746144
   0.31234644  0.68650652  0.68767170
   0.56238310  0.56227054  0.56290659
   0.68734641  0.68789374  0.56214599
   0.68773566  0.56189224  0.68808953
   0.55856899  0.68610792  0.68711761
Direct configuration=     5
   0.31140330  0.31296509  0.31244334
   0.43953266  0.43750173  0.31141971
   0.43426765  0.31554963  0.43441940
   0.31162370  0.43937459  0.43997220
   0.56650331  0.31389956  0.31043258
   0.68624409  0.43892551  0.31451247
   0.68517802  0.31127413  0.43434630
   0.55665869  0.43619087  0.43448976
   0.31366143  0.56026643  0.31496957
   0.43626611  0.68849434  0.31281761
   0.43661635  0.56379527  0.43518171
   0.31577410  0.68624953  0.43460362
   0.56492140  0.56185283  0.31164312
   0.68748449  0.68600719  0.31021363
   0.68761822  0.56031680  0.43591607
   0.56170850  0.68857646  0.43755890
   0.31037345  0.31288049  0.56370828
   0.43890483  0.43181338  0.56198672
   0.43712465  0.30963680  0.68720789
   0.31606017  0.43857324  0.68820956
   0.56380511  0.31223411  0.56099359
   0.68336239  0.43659088  0.56167740
   0.68572802  0.31170536  0.68548951
   0.56370427  0.44113374  0.68486424
   0.31374389  0.56063158  0.56676439
   0.43623383  0.68793898  0.56471646
   0.43578668  0.55893439  0.68777575
   0.31238617  0.68617208  0.68746365
   0.56201130  0.56230008  0.56358883
   0.68696618  0.68789416  0.56219004
   0.68756534  0.56142165  0.68845842
   0.55778169  0.68589912  0.68696527
Direct configuration=     6
   0.31145069  0.31325077  0.31232765
   0.43950427  0.43838482  0.31153601
   0.43442038  0.31520993  0.43451847
   0.31153217  0.43984987  0.44034086
   0.56744156  0.31429562  0.30990873
   0.68613407  0.43932819  0.31480420
   0.68532225  0.31091018  0.43476868
   0.55565894  0.43604638  0.43377767
   0.31403706  0.55983476  0.31538767
   0.43614075  0.68883491  0.31277416
   0.43639172  0.56358188  0.43529280
   0.31654740  0.68614012  0.43392030
   0.56512258  0.56184534  0.31135296
   0.68719162  0.68604696  0.31021958
   0.68744916  0.56012118  0.43585295
   0.56110193  0.68927296  0.43734966
   0.31059638  0.31335720  0.56417808
   0.43928410  0.43079837  0.56181161
   0.43714162  0.30892495  0.68723400
   0.31688676  0.43889943  0.68826605
   0.56422009  0.31226575  0.56062673
   0.68235926  0.43632350  0.56149315
   0.68526954  0.31198060  0.68514197
   0.56381195  0.44155203  0.68494922
   0.31407874  0.56041844  0.56753958
   0.43638160  0.68801884  0.56538617
   0.43612291  0.55911777  0.68805822
   0.31243113  0.68586081  0.68720898
   0.56207728  0.56190203  0.56321880
   0.68655221  0.68791802  0.56220394
   0.68736273  0.56099297  0.68878246
   0.55697714  0.68571545  0.68676870
Direct configuration=     7
   0.31149817  0.31356548  0.31218003
   0.43968519  0.43911284  0.31180907
   0.43461853  0.31501089  0.43481411
   0.31142492  0.44032912  0.44065544
   0.56835564  0.31471457  0.30934722
   0.68598790  0.43974087  0.31505878
   0.68542911  0.31057032  0.43514196
   0.55465059  0.43591361  0.43301780
   0.31440771  0.55940677  0.31576811
   0.43600025  0.68916798  0.31269442
   0.43614723  0.56337786  0.43535750
   0.31653168  0.68560572  0.43366087
   0.56530383  0.56185152  0.31101731
   0.68685649  0.68607377  0.31019466
   0.68725061  0.55993819  0.43573752
   0.56047785  0.68996697  0.43708745
   0.31081641  0.31385927  0.56459280
   0.43963933  0.42979911  0.56158700
   0.43714154  0.30823859  0.68719024
   0.31770784  0.43923287  0.68825467
   0.56461551  0.31230904  0.56021109
   0.68133302  0.43606257  0.56125541
   0.68477052  0.31228375  0.68472236
   0.56389905  0.44197194  0.68498096
   0.31439911  0.56021645  0.56826035
   0.43650639  0.68809911  0.56600230
   0.43643930  0.55931344  0.68828391
   0.31247563  0.68553784  0.68688269
   0.56212177  0.56151650  0.56278990
   0.68609857  0.68793034  0.56216149
   0.68712271  0.56057161  0.68903655
   0.55728757  0.68571108  0.68724602
Direct configuration=     8
   0.31155983  0.31388689  0.31207179
   0.43981546  0.43987110  0.31179365
   0.43480364  0.31479900  0.43512253
   0.31131581  0.44078925  0.44098715
   0.56892497  0.31474040  0.30926571
   0.68581986  0.44014045  0.31534668
   0.68551194  0.31023206  0.43553654
   0.55364858  0.43576925  0.43228210
   0.31510656  0.55920628  0.31593138
   0.43585823  0.68947118  0.31264901
   0.43589733  0.56316190  0.43544771
   0.31652576  0.68504077  0.43342516
   0.56547858  0.56184925  0.31070688
   0.68660639  0.68665481  0.30986941
   0.68679278  0.55983802  0.43479062
   0.55984995  0.69063555  0.43684354
   0.31104690  0.31436392  0.56502355
   0.43998336  0.42879442  0.56138570
   0.43713829  0.30755456  0.68714767
   0.31853695  0.43955057  0.68824684
   0.56500428  0.31233991  0.55981784
   0.68029837  0.43578595  0.56103490
   0.68424457  0.31259229  0.68430138
   0.56397866  0.44237023  0.68503064
   0.31471850  0.56000300  0.56899627
   0.43662216  0.68815696  0.56663561
   0.43675022  0.55949866  0.68852344
   0.31253311  0.68518126  0.68655631
   0.56195378  0.56123046  0.56284894
   0.68622555  0.68768240  0.56236369
   0.68685909  0.56013481  0.68929158
   0.55759054  0.68567444  0.68772576
Direct configuration=     9
   0.31161934  0.31423071  0.31199392
   0.43991522  0.44062355  0.31178601
   0.43471126  0.31428682  0.43506883
   0.31118813  0.44124554  0.44132624
   0.56946632  0.31478179  0.30920833
   0.68574429  0.44075169  0.31599627
   0.68555432  0.30991188  0.43594236
   0.55263750  0.43562994  0.43156156
   0.31505182  0.55937484  0.31600866
   0.43569813  0.68976088  0.31262845
   0.43562840  0.56258732  0.43590790
   0.31651320  0.68446218  0.43320414
   0.56563005  0.56185495  0.31041203
   0.68631146  0.68721620  0.30957487
   0.68630227  0.55974449  0.43385448
   0.55920113  0.69129498  0.43660903
   0.31086828  0.31425903  0.56497830
   0.44101366  0.42836271  0.56096105
   0.43711542  0.30688935  0.68709730
   0.31935724  0.43986811  0.68823316
   0.56536931  0.31237322  0.55943694
   0.68054109  0.43561671  0.56102961
   0.68367580  0.31292145  0.68387066
   0.56403343  0.44276281  0.68508991
   0.31501989  0.55979474  0.56973697
   0.43671253  0.68820852  0.56727563
   0.43703963  0.55968939  0.68876774
   0.31258655  0.68480742  0.68622151
   0.56176102  0.56095182  0.56291098
   0.68630916  0.68741629  0.56257099
   0.68655508  0.55969903  0.68953837
   0.55786910  0.68562163  0.68819781
Direct configuration=    10
   0.31175835  0.31458383  0.31188057
   0.44006498  0.44135682  0.31171838
   0.43374999  0.31377078  0.43514423
   0.31114405  0.44068644  0.44131160
   0.56995451  0.31488789  0.30908905
   0.68571236  0.44135101  0.31660224
   0.68563796  0.30959612  0.43629296
   0.55170206  0.43548241  0.43079150
   0.31506807  0.55952716  0.31604155
   0.43560166  0.69002367  0.31256652
   0.43542070  0.56200570  0.43631928
   0.31657585  0.68385644  0.43293178
   0.56583956  0.56185612  0.31006623
   0.68605284  0.68774460  0.30924472
   0.68601495  0.55948089  0.43486339
   0.55861320  0.69193047  0.43631827
   0.31076470  0.31415870  0.56487326
   0.44135073  0.42819373  0.56150864
   0.43735384  0.30733170  0.68717043
   0.32024997  0.44017091  0.68814801
   0.56579174  0.31239486  0.55900184
   0.68035292  0.43552135  0.56086511
   0.68314594  0.31325685  0.68336414
   0.56414422  0.44313518  0.68509316
   0.31538501  0.55957750  0.57041572
   0.43626708  0.68861500  0.56699219
   0.43738962  0.55987192  0.68895085
   0.31304754  0.68470347  0.68501423
   0.56166502  0.56033143  0.56309645
   0.68643043  0.68711808  0.56271699
   0.68654497  0.55893994  0.69001057
   0.55820517  0.68553903  0.68859615
Direct configuration=    11
   0.31197917  0.31494440  0.31165878
   0.44018117  0.44217302  0.31254102
   0.43284278  0.31324324  0.43508335
   0.31116578  0.44010807  0.44116604
   0.57049924  0.31499478  0.30885553
   0.68572701  0.44193674  0.31709193
   0.68576603  0.30928297  0.43651561
   0.55124128  0.43503789  0.43064400
   0.31515804  0.55966122  0.31595737
   0.43557194  0.69025815  0.31239099
   0.43527670  0.56141641  0.43661013
   0.31671649  0.68322221  0.43253610
   0.56575324  0.56179179  0.31027251
   0.68529160  0.68824721  0.30940516
   0.68577940  0.55921018  0.43574587
   0.55843843  0.69299673  0.43686088
   0.31018355  0.31514135  0.56506564
   0.44133720  0.42786300  0.56170801
   0.43765742  0.30777749  0.68709701
   0.31990024  0.43979300  0.68800043
   0.56627340  0.31240279  0.55843996
   0.68026428  0.43527544  0.56095385
   0.68265842  0.31359615  0.68270993
   0.56484505  0.44357906  0.68443621
   0.31581635  0.55934972  0.57095850
   0.43588294  0.68899922  0.56657555
   0.43780350  0.56004515  0.68900065
   0.31358747  0.68456844  0.68366161
   0.56162923  0.55970541  0.56314393
   0.68659201  0.68678626  0.56272900
   0.68657979  0.55816721  0.69033672
   0.55860086  0.68542533  0.68884772
Direct configuration=    12
   0.31206497  0.31582699  0.31203385
   0.44032623  0.44296807  0.31325942
   0.43196778  0.31270550  0.43491789
   0.31123030  0.43951243  0.44092088
   0.57046424  0.31570050  0.30902899
   0.68576646  0.44250980  0.31749627
   0.68591629  0.30897338  0.43664126
   0.55083894  0.43458243  0.43040927
   0.31500996  0.55946156  0.31680627
   0.43514398  0.68981853  0.31198790
   0.43517382  0.56082182  0.43681240
   0.31691238  0.68256144  0.43204876
   0.56570575  0.56172375  0.31038736
   0.68454616  0.68871611  0.30948889
   0.68557342  0.55893414  0.43653287
   0.55830414  0.69403633  0.43730656
   0.30965763  0.31612741  0.56515719
   0.44135524  0.42752861  0.56181386
   0.43800430  0.30822809  0.68690832
   0.31960210  0.43939956  0.68774111
   0.56679107  0.31239758  0.55778187
   0.67994224  0.43595413  0.56026932
   0.68278561  0.31373924  0.68306281
   0.56557229  0.44352097  0.68433564
   0.31629134  0.55911189  0.57139608
   0.43553881  0.68936211  0.56605704
   0.43825883  0.56021020  0.68894801
   0.31418289  0.68440444  0.68219638
   0.56163038  0.55907674  0.56308404
   0.68677088  0.68642217  0.56263815
   0.68663773  0.55738279  0.69054793
   0.55903386  0.68528130  0.68898341
Direct configuration=    13
   0.31216844  0.31668333  0.31239879
   0.44045953  0.44370603  0.31393873
   0.43108632  0.31212356  0.43471615
   0.31129714  0.43886548  0.44064486
   0.57042344  0.31637414  0.30918798
   0.68579115  0.44303556  0.31788315
   0.68604901  0.30863287  0.43673779
   0.55045566  0.43408195  0.43015586
   0.31487154  0.55921015  0.31763584
   0.43472073  0.68931758  0.31157034
   0.43538026  0.56059959  0.43651875
   0.31712312  0.68184114  0.43153831
   0.56565705  0.56161855  0.31047907
   0.68377608  0.68911752  0.30956414
   0.68535717  0.55861924  0.43729214
   0.55816992  0.69501318  0.43772284
   0.30914634  0.31708250  0.56521595
   0.44136475  0.42715698  0.56189472
   0.43835490  0.30864868  0.68667269
   0.31931597  0.43895688  0.68743891
   0.56730405  0.31234496  0.55709711
   0.67962080  0.43658674  0.55955088
   0.68289313  0.31385334  0.68336765
   0.56629405  0.44340574  0.68420894
   0.31677004  0.55882901  0.57179570
   0.43519619  0.68966965  0.56550384
   0.43871568  0.56033227  0.68886095
   0.31472310  0.68533068  0.68222059
   0.56162698  0.55841238  0.56298485
   0.68692674  0.68599174  0.56251251
   0.68667937  0.55655327  0.69071243
   0.55928134  0.68500531  0.68897750
Direct configuration=    14
   0.31138123  0.31660800  0.31318893
   0.44050170  0.44451076  0.31459357
   0.43012075  0.31162338  0.43449573
   0.31128779  0.43829330  0.44035491
   0.56994371  0.31641912  0.30926705
   0.68572321  0.44363957  0.31826904
   0.68608599  0.30838690  0.43682172
   0.55001347  0.43366141  0.42990181
   0.31497100  0.55933266  0.31677125
   0.43512968  0.68852573  0.31245771
   0.43551049  0.56046565  0.43622390
   0.31727036  0.68118801  0.43102138
   0.56552859  0.56160258  0.31056415
   0.68290311  0.68957710  0.30964751
   0.68547452  0.55891529  0.43755164
   0.55795729  0.69605307  0.43812654
   0.30904129  0.31676790  0.56506407
   0.44107991  0.42685425  0.56306175
   0.43826365  0.30783985  0.68733232
   0.31896337  0.43859107  0.68711099
   0.56830883  0.31262102  0.55625476
   0.67922324  0.43729709  0.55881589
   0.68290226  0.31406430  0.68364073
   0.56693120  0.44335765  0.68407349
   0.31717389  0.55862734  0.57217386
   0.43477661  0.69004701  0.56493323
   0.43909540  0.56053681  0.68875651
   0.31519909  0.68632017  0.68221919
   0.56232396  0.55777039  0.56265568
   0.68698080  0.68562053  0.56236875
   0.68740287  0.55708506  0.69084572
   0.55953072  0.68479704  0.68843624
Direct configuration=    15
   0.31189010  0.31626655  0.31344274
   0.44046936  0.44524688  0.31523979
   0.42908890  0.31107126  0.43427580
   0.31121945  0.43766174  0.44006953
   0.57016587  0.31626881  0.30852455
   0.68557951  0.44418622  0.31867179
   0.68604518  0.30810103  0.43691034
   0.54985302  0.43406564  0.43064464
   0.31501703  0.55939415  0.31592067
   0.43548321  0.68766440  0.31336481
   0.43560094  0.56029411  0.43594001
   0.31737076  0.68046740  0.43051604
   0.56533764  0.56154174  0.31066054
   0.68194460  0.68996002  0.30975737
   0.68552094  0.55916437  0.43781728
   0.55768369  0.69645644  0.43822023
   0.30843342  0.31683511  0.56543769
   0.44072562  0.42650470  0.56423652
   0.43877498  0.30807286  0.68785992
   0.31856194  0.43816718  0.68677572
   0.56924535  0.31284060  0.55542290
   0.67876828  0.43794975  0.55808336
   0.68219302  0.31457763  0.68408975
   0.56750027  0.44324236  0.68394756
   0.31751965  0.55837300  0.57254882
   0.43429761  0.69035849  0.56436285
   0.43941472  0.56068940  0.68865286
   0.31562811  0.68723804  0.68220930
   0.56295198  0.55708716  0.56232212
   0.68695024  0.68517448  0.56222514
   0.68804916  0.55756369  0.69096752
   0.55971540  0.68451478  0.68788185
Direct configuration=    16
   0.31249452  0.31601009  0.31368144
   0.44050379  0.44603441  0.31583810
   0.42813320  0.31058923  0.43401923
   0.31123410  0.43709256  0.43975110
   0.56987696  0.31648191  0.30879428
   0.68606382  0.44335338  0.31906355
   0.68655345  0.30717842  0.43640150
   0.54979083  0.43453369  0.43136711
   0.31457486  0.55905907  0.31511634
   0.43592367  0.68685555  0.31425188
   0.43577277  0.56019731  0.43563837
   0.31756450  0.67980176  0.42998534
   0.56522602  0.56155718  0.31073008
   0.68104276  0.69038708  0.30985556
   0.68563820  0.55948838  0.43805023
   0.55749045  0.69690955  0.43828135
   0.30792043  0.31698259  0.56577521
   0.44044359  0.42622818  0.56537964
   0.43913487  0.30755105  0.68772016
   0.31825291  0.43780595  0.68639522
   0.57025436  0.31312445  0.55456318
   0.67839910  0.43866421  0.55731524
   0.68154461  0.31517385  0.68448672
   0.56735599  0.44323586  0.68438997
   0.31794846  0.55818759  0.57288268
   0.43390138  0.69072463  0.56375519
   0.43981470  0.56091104  0.68851139
   0.31615184  0.68820440  0.68215223
   0.56228122  0.55751278  0.56248891
   0.68697694  0.68477499  0.56204362
   0.68875904  0.55810976  0.69103989
   0.55997666  0.68427911  0.68727531
Direct configuration=    17
   0.31311722  0.31580982  0.31399699
   0.44051179  0.44626709  0.31527119
   0.42717879  0.31014992  0.43381980
   0.31125550  0.43655758  0.43949324
   0.56958578  0.31674856  0.30914111
   0.68653640  0.44255732  0.31952725
   0.68704983  0.30630877  0.43595006
   0.54963307  0.43426208  0.43169276
   0.31422799  0.55879785  0.31595635
   0.43574806  0.68715164  0.31382668
   0.43594827  0.56014736  0.43541436
   0.31777462  0.67916397  0.42952320
   0.56511871  0.56161995  0.31086601
   0.68012162  0.69083012  0.31003537
   0.68530626  0.55942326  0.43822460
   0.55730157  0.69738406  0.43840343
   0.30742602  0.31718146  0.56616959
   0.44015808  0.42599590  0.56658271
   0.43950262  0.30708281  0.68762366
   0.31795965  0.43747873  0.68606276
   0.57125830  0.31344489  0.55376935
   0.67803978  0.43941202  0.55660541
   0.68189102  0.31578979  0.68448448
   0.56720929  0.44325688  0.68489687
   0.31843200  0.55755594  0.57340318
   0.43351136  0.69111646  0.56320307
   0.44021867  0.56117395  0.68842570
   0.31669399  0.68919078  0.68214092
   0.56160457  0.55799151  0.56270670
   0.68698475  0.68439348  0.56191739
   0.68945616  0.55869426  0.69115586
   0.56023826  0.68406176  0.68670997
Direct configuration=    18
   0.31375914  0.31561809  0.31435582
   0.44051442  0.44647459  0.31471717
   0.42717738  0.31024815  0.43339441
   0.31128575  0.43601021  0.43926460
   0.56929433  0.31702130  0.30953311
   0.68699873  0.44175150  0.32003067
   0.68753669  0.30544493  0.43552322
   0.54949672  0.43397807  0.43205803
   0.31389301  0.55852046  0.31683262
   0.43558541  0.68742551  0.31344197
   0.43612897  0.56009640  0.43523624
   0.31800246  0.67850919  0.42909886
   0.56501777  0.56168233  0.31103643
   0.67918353  0.69124245  0.31026446
   0.68533877  0.55944426  0.43795253
   0.55711871  0.69783258  0.43855402
   0.30695276  0.31738426  0.56658890
   0.43987087  0.42576005  0.56781210
   0.43988016  0.30662166  0.68753895
   0.31768417  0.43713826  0.68574695
   0.57225824  0.31375445  0.55301122
   0.67769279  0.44014615  0.55592331
   0.68111322  0.31568920  0.68437423
   0.56706351  0.44325900  0.68543516
   0.31892371  0.55692050  0.57394154
   0.43312897  0.69148687  0.56267392
   0.44062747  0.56143115  0.68836432
   0.31725642  0.69014929  0.68214336
   0.56092406  0.55847551  0.56294326
   0.68664717  0.68439803  0.56177092
   0.69014222  0.55926940  0.69128325
   0.56050249  0.68381616  0.68615448
Direct configuration=    19
   0.31440848  0.31549033  0.31483610
   0.44050193  0.44671309  0.31425508
   0.42681936  0.31047259  0.43247749
   0.31131406  0.43550655  0.43914480
   0.56964698  0.31697092  0.30884713
   0.68743929  0.44099211  0.32065331
   0.68731282  0.30549049  0.43567080
   0.54962742  0.43290665  0.43184780
   0.31355820  0.55828152  0.31782316
   0.43542501  0.68773310  0.31317630
   0.43630362  0.56009982  0.43518325
   0.31823644  0.67789438  0.42879178
   0.56491269  0.56179985  0.31132010
   0.67821677  0.69167975  0.31062139
   0.68535562  0.55952059  0.43778629
   0.55727560  0.69733863  0.43817427
   0.30650397  0.31744280  0.56636033
   0.43957175  0.42557561  0.56914441
   0.44025613  0.30622373  0.68754520
   0.31741478  0.43684071  0.68552814
   0.57324256  0.31410807  0.55236768
   0.67734768  0.44092328  0.55534937
   0.68031135  0.31565236  0.68435170
   0.56690925  0.44329900  0.68608328
   0.31941278  0.55633883  0.57457598
   0.43274343  0.69189210  0.56224675
   0.44102941  0.56173845  0.68840716
   0.31782722  0.69113637  0.68223857
   0.56023024  0.55901928  0.56327674
   0.68628179  0.68442998  0.56172672
   0.69080491  0.55989030  0.69150086
   0.56075845  0.68359877  0.68568807
Direct configuration=    20
   0.31505129  0.31535330  0.31534675
   0.44078870  0.44673777  0.31441477
   0.42644498  0.31067644  0.43157968
   0.31132745  0.43497414  0.43904466
   0.56997570  0.31690916  0.30819494
   0.68784548  0.44020635  0.32130576
   0.68705510  0.30578526  0.43526095
   0.54975377  0.43180891  0.43166560
   0.31321048  0.55800757  0.31883745
   0.43525441  0.68800146  0.31294057
   0.43646047  0.56008343  0.43516620
   0.31846353  0.67724838  0.42851285
   0.56479130  0.56189900  0.31162747
   0.67777664  0.69195678  0.31071937
   0.68534394  0.55957943  0.43763612
   0.55741469  0.69680224  0.43781277
   0.30624520  0.31778966  0.56653804
   0.43924896  0.42536871  0.57048767
   0.44061833  0.30581632  0.68755304
   0.31713892  0.43651207  0.68531768
   0.57419720  0.31443202  0.55175070
   0.67749286  0.44146071  0.55478833
   0.67947343  0.31560630  0.68432770
   0.56673505  0.44330428  0.68675129
   0.31893147  0.55653466  0.57453195
   0.43234199  0.69225833  0.56183254
   0.44141168  0.56202302  0.68846611
   0.31839407  0.69207864  0.68233670
   0.55951176  0.55954851  0.56361681
   0.68587618  0.68441602  0.56169520
   0.69143104  0.56048363  0.69171841
   0.56099392  0.68333751  0.68522191
Direct configuration=    21
   0.31565708  0.31523275  0.31594212
   0.44102073  0.44674769  0.31463349
   0.42602831  0.31088576  0.43076025
   0.31129818  0.43444001  0.43902201
   0.57025247  0.31686245  0.30763321
   0.68818967  0.43942099  0.32204447
   0.68676146  0.30580856  0.43466264
   0.54984665  0.43071226  0.43156881
   0.31282161  0.55772401  0.31993052
   0.43504614  0.68825725  0.31279136
   0.43657240  0.56007260  0.43524258
   0.31865501  0.67659969  0.42832056
   0.56462538  0.56200575  0.31201504
   0.67726917  0.69221251  0.31091236
   0.68521091  0.56001339  0.43815993
   0.55750773  0.69625075  0.43752615
   0.30595603  0.31814920  0.56678664
   0.43881210  0.42526006  0.57104794
   0.44093895  0.30542559  0.68761948
   0.31668139  0.43637631  0.68449630
   0.57458284  0.31429473  0.55115576
   0.67759986  0.44199658  0.55430497
   0.67940262  0.31671770  0.68412294
   0.56756611  0.44325301  0.68682000
   0.31840748  0.55673929  0.57455190
   0.43189676  0.69261153  0.56148826
   0.44174496  0.56231126  0.68859821
   0.31766898  0.69228305  0.68196267
   0.55943524  0.55981785  0.56373688
   0.68637029  0.68438306  0.56233666
   0.69199233  0.56107521  0.69199286
   0.56118117  0.68305912  0.68481304
Direct configuration=    22
   0.31623339  0.31511081  0.31648304
   0.44120719  0.44672613  0.31477356
   0.42618411  0.31091385  0.43119991
   0.31123512  0.43388777  0.43893958
   0.57048642  0.31681304  0.30702347
   0.68848055  0.43862034  0.32273191
   0.68714614  0.30602991  0.43411194
   0.54991507  0.42960242  0.43141967
   0.31240050  0.55741248  0.32096403
   0.43480898  0.68848317  0.31259121
   0.43664930  0.56004903  0.43527540
   0.31881926  0.67593292  0.42807848
   0.56442410  0.56210256  0.31234557
   0.67670393  0.69242946  0.31106303
   0.68503014  0.56043917  0.43861849
   0.55740662  0.69653061  0.43763619
   0.30564514  0.31850374  0.56696850
   0.43833445  0.42513684  0.57153740
   0.44122725  0.30503424  0.68760702
   0.31619812  0.43621999  0.68360466
   0.57491895  0.31413753  0.55051000
   0.67767740  0.44251364  0.55376226
   0.67927769  0.31782818  0.68383693
   0.56835873  0.44317816  0.68682580
   0.31785093  0.55693612  0.57449878
   0.43141692  0.69293408  0.56107704
   0.44203740  0.56258568  0.68866503
   0.31692191  0.69245157  0.68151049
   0.55931561  0.56007945  0.56378296
   0.68680605  0.68431336  0.56291110
   0.69255293  0.56131681  0.69232187
   0.56132970  0.68274691  0.68432469
Direct configuration=    23
   0.31685655  0.31493928  0.31693465
   0.44142527  0.44662549  0.31480132
   0.42638616  0.31088081  0.43155015
   0.31138364  0.43430676  0.43854078
   0.57071744  0.31710816  0.30741889
   0.68879573  0.43775747  0.32333469
   0.68756167  0.30619940  0.43345983
   0.55003574  0.42843318  0.43118463
   0.31202398  0.55702375  0.32190379
   0.43462023  0.68863140  0.31230692
   0.43676950  0.55996403  0.43523172
   0.31826887  0.67566403  0.42847003
   0.56426552  0.56214101  0.31258616
   0.67615837  0.69255979  0.31113789
   0.68487863  0.56080861  0.43897785
   0.55734567  0.69673069  0.43765082
   0.30538923  0.31880454  0.56705003
   0.43789518  0.42495132  0.57192303
   0.44067848  0.30506724  0.68828122
   0.31576583  0.43599551  0.68261046
   0.57528280  0.31391233  0.54978088
   0.67780281  0.44296291  0.55312806
   0.67917696  0.31888865  0.68343609
   0.56918841  0.44303324  0.68673501
   0.31756284  0.55690235  0.57466552
   0.43098059  0.69317782  0.56056586
   0.44236602  0.56279815  0.68863291
   0.31623070  0.69253606  0.68094726
   0.55922998  0.56028496  0.56372143
   0.68726101  0.68415915  0.56338477
   0.69317945  0.56139900  0.69292359
   0.56151676  0.68235292  0.68372376
Direct configuration=    24
   0.31718368  0.31419964  0.31639164
   0.44159163  0.44648778  0.31488773
   0.42655090  0.31082779  0.43198241
   0.31222832  0.43501643  0.43767708
   0.57094663  0.31782029  0.30775650
   0.68905258  0.43687463  0.32402356
   0.68792570  0.30635782  0.43287702
   0.55012409  0.42724902  0.43103523
   0.31160851  0.55660040  0.32292001
   0.43439592  0.68874376  0.31210971
   0.43684962  0.55985930  0.43528247
   0.31768400  0.67537228  0.42894977
   0.56406635  0.56216236  0.31290748
   0.67611810  0.69217134  0.31070036
   0.68467277  0.56116294  0.43940748
   0.55724128  0.69689239  0.43774080
   0.30510526  0.31909255  0.56720142
   0.43741204  0.42474507  0.57237532
   0.44009116  0.30509428  0.68901329
   0.31530064  0.43574486  0.68168583
   0.57559072  0.31366098  0.54914039
   0.67789207  0.44338558  0.55257403
   0.67901801  0.31993974  0.68309122
   0.56996985  0.44286197  0.68671746
   0.31723702  0.55685629  0.57489619
   0.43050384  0.69338439  0.56012531
   0.44264682  0.56298995  0.68867255
   0.31551199  0.69257763  0.68044331
   0.55951308  0.56108454  0.56411495
   0.68676774  0.68375113  0.56312075
   0.69374293  0.56145664  0.69358168