unknown system                          
   1.00000000000000     
     3.850000    0.000000    0.000000
     0.000000    3.850000    0.000000
     0.000000    0.000000    3.850000
   Sr   Fe   O 
     1     1     3
Direct
  0.500000  0.500000  0.500000
  0.000000  0.000000  0.000000
  0.500000  0.000000  0.000000
  0.000000  0.500000  0.000000
  0.000000  0.000000  0.500000
 
   32   32   32
  1166.8      1103.7      929.35      686.06      432.87      226.34      98.714      46.728      39.450      46.907    
  67.480      109.23      177.41      267.43      361.90      434.76      462.26      434.76      361.90      267.43    
  177.41      109.23      67.480      46.907      39.450      46.728      98.714      226.34      432.87      686.06    
  929.35      1103.7      1103.7      1043.1      876.04      643.87      403.73      209.55      91.169      44.153    
  38.004      45.153      64.516      103.76      168.15      253.58      343.57      413.15      439.44      413.15    
  343.57      253.58      168.15      103.76      64.516      45.153      38.004      44.153      91.169      209.55    
  403.73      643.87      876.04      1043.1      929.35      876.04      730.00      529.47      325.86      165.62    
  72.052      37.787      34.057      40.378      56.604      89.080      143.01      215.57      292.83      353.02    
  375.85      353.02      292.83      215.57      143.01      89.080      56.604      40.378      34.057      37.787    
  72.052      165.62      325.86      529.47      730.00      876.04      686.06      643.87      529.47      375.56    
  224.23      110.84      49.792      30.519      28.608      33.753      46.142      69.672      109.13      163.31    
  222.02      268.30      285.96      268.30      222.02      163.31      109.13      69.672      46.142      33.753    
  28.608      30.519      49.792      110.84      224.23      375.56      529.47      643.87      432.87      403.73    
  325.86      224.23      129.17      63.459      32.557      24.082      22.858      26.682      35.586      50.752    
  75.590      110.30      148.73      179.49      191.33      179.49      148.73      110.30      75.590      50.752    
  35.586      26.682      22.858      24.082      32.557      63.459      129.17      224.23      325.86      403.73    
  226.34      209.55      165.62      110.84      63.459      34.622      23.025      18.587      17.787      20.331    
  26.225      35.657      49.377      68.158      89.229      106.37      113.02      106.37      89.229      68.158    
  49.377      35.657      26.225      20.331      17.787      18.587      23.025      34.622      63.459      110.84    
  165.62      209.55      98.714      91.169      72.052      49.792      32.557      23.025      17.565      14.584    
  13.919      15.334      18.817      24.464      32.106      41.259      51.045      58.954      62.030      58.954    
  51.045      41.259      32.106      24.464      18.817      15.334      13.919      14.584      17.565      23.025    
  32.557      49.792      72.052      91.169      46.728      44.153      37.787      30.519      24.082      18.587    
  14.584      12.224      11.355      11.815      13.560      16.595      20.782      25.658      30.372      33.853    
  35.155      33.853      30.372      25.658      20.782      16.595      13.560      11.815      11.355      12.224    
  14.584      18.587      24.082      30.519      37.787      44.153      39.450      38.004      34.057      28.608    
  22.858      17.787      13.919      11.355      9.9657      9.5925      10.132      11.505      13.570      16.032    
  18.422      20.176      20.823      20.176      18.422      16.032      13.570      11.505      10.132      9.5925    
  9.9657      11.355      13.919      17.787      22.858      28.608      34.057      38.004      46.907      45.153    
  40.378      33.753      26.682      20.331      15.334      11.815      9.5925      8.4134      8.0661      8.3859    
  9.2044      10.306      11.416      12.241      12.546      12.241      11.416      10.306      9.2044      8.3859    
  8.0661      8.4134      9.5925      11.815      15.334      20.331      26.682      33.753      40.378      45.153    
  67.480      64.516      56.604      46.142      35.586      26.225      18.817      13.560      10.132      8.0661    
  6.9753      6.5770      6.6482      6.9925      7.4270      7.7802      7.9160      7.7802      7.4270      6.9925    
  6.6482      6.5770      6.9753      8.0661      10.132      13.560      18.817      26.225      35.586      46.142    
  56.604      64.516      109.23      103.76      89.080      69.672      50.752      35.657      24.464      16.595    
  11.505      8.3859      6.5770      5.6259      5.2135      5.1179      5.1906      5.3099      5.3660      5.3099    
  5.1906      5.1179      5.2135      5.6259      6.5770      8.3859      11.505      16.595      24.464      35.657    
  50.752      69.672      89.080      103.76      177.41      168.15      143.01      109.13      75.590      49.377    
  32.106      20.782      13.570      9.2044      6.6482      5.2135      4.4394      4.0438      3.8893      3.8775    
  3.8933      3.8775      3.8893      4.0438      4.4394      5.2135      6.6482      9.2044      13.570      20.782    
  32.106      49.377      75.590      109.13      143.01      168.15      267.43      253.58      215.57      163.31    
  110.30      68.158      41.259      25.658      16.032      10.306      6.9925      5.1179      4.0438      3.4082    
  3.0775      2.9722      2.9624      2.9722      3.0775      3.4082      4.0438      5.1179      6.9925      10.306    
  16.032      25.658      41.259      68.158      110.30      163.31      215.57      253.58      361.90      343.57    
  292.83      222.02      148.73      89.229      51.045      30.372      18.422      11.416      7.4270      5.1906    
  3.8893      3.0775      2.6211      2.4552      2.4312      2.4552      2.6211      3.0775      3.8893      5.1906    
  7.4270      11.416      18.422      30.372      51.045      89.229      148.73      222.02      292.83      343.57    
  434.76      413.15      353.02      268.30      179.49      106.37      58.954      33.853      20.176      12.241    
  7.7802      5.3099      3.8775      2.9722      2.4552      2.2669      2.2404      2.2669      2.4552      2.9722    
  3.8775      5.3099      7.7802      12.241      20.176      33.853      58.954      106.37      179.49      268.30    
  353.02      413.15      462.26      439.44      375.85      285.96      191.33      113.02      62.030      35.155    
  20.823      12.546      7.9160      5.3660      3.8933      2.9624      2.4312      2.2404      2.2152      2.2404    
  2.4312      2.9624      3.8933      5.3660      7.9160      12.546      20.823      35.155      62.030      113.02    
  191.33      285.96      375.85      439.44      434.76      413.15      353.02      268.30      179.49      106.37    
  58.954      33.853      20.176      12.241      7.7802      5.3099      3.8775      2.9722      2.4552      2.2669    
  2.2404      2.2669      2.4552      2.9722      3.8775      5.3099      7.7802      12.241      20.176      33.853    
  58.954      106.37      179.49      268.30      353.02      413.15      361.90      343.57      292.83      222.02    
  148.73      89.229      51.045      30.372      18.422      11.416      7.4270      5.1906      3.8893      3.0775    
  2.6211      2.4552      2.4312      2.4552      2.6211      3.0775      3.8893      5.1906      7.4270      11.416    
  18.422      30.372      51.045      89.229      148.73      222.02      292.83      343.57      267.43      253.58    
  215.57      163.31      110.30      68.158      41.259      25.658      16.032      10.306      6.9925      5.1179    
  4.0438      3.4082      3.0775      2.9722      2.9624      2.9722      3.0775      3.4082      4.0438      5.1179    
  6.9925      10.306      16.032      25.658      41.259      68.158      110.30      163.31      215.57      253.58    
  177.41      168.15      143.01      109.13      75.590      49.377      32.106      20.782      13.570      9.2044    
  6.6482      5.2135      4.4394      4.0438      3.8893      3.8775      3.8933      3.8775      3.8893      4.0438    
  4.4394      5.2135      6.6482      9.2044      13.570      20.782      32.106      49.377      75.590      109.13    
  143.01      168.15      109.23      103.76      89.080      69.672      50.752      35.657      24.464      16.595    
  11.505      8.3859      6.5770      5.6259      5.2135      5.1179      5.1906      5.3099      5.3660      5.3099    
  5.1906      5.1179      5.2135      5.6259      6.5770      8.3859      11.505      16.595      24.464      35.657    
  50.752      69.672      89.080      103.76      67.480      64.516      56.604      46.142      35.586      26.225    
  18.817      13.560      10.132      8.0661      6.9753      6.5770      6.6482      6.9925      7.4270      7.7802    
  7.9160      7.7802      7.4270      6.9925      6.6482      6.5770      6.9753      8.0661      10.132      13.560    
  18.817      26.225      35.586      46.142      56.604      64.516      46.907      45.153      40.378      33.753    
  26.682      20.331      15.334      11.815      9.5925      8.4134      8.0661      8.3859      9.2044      10.306    
  11.416      12.241      12.546      12.241      11.416      10.306      9.2044      8.3859      8.0661      8.4134    
  9.5925      11.815      15.334      20.331      26.682      33.753      40.378      45.153      39.450      38.004    
  34.057      28.608      22.858      17.787      13.919      11.355      9.9657      9.5925      10.132      11.505    
  13.570      16.032      18.422      20.176      20.823      20.176      18.422      16.032      13.570      11.505    
  10.132      9.5925      9.9657      11.355      13.919      17.787      22.858      28.608      34.057      38.004    
  46.728      44.153      37.787      30.519      24.082      18.587      14.584      12.224      11.355      11.815    
  13.560      16.595      20.782      25.658      30.372      33.853      35.155      33.853      30.372      25.658    
  20.782      16.595      13.560      11.815      11.355      12.224      14.584      18.587      24.082      30.519    
  37.787      44.153      98.714      91.169      72.052      49.792      32.557      23.025      17.565      14.584    
  13.919      15.334      18.817      24.464      32.106      41.259      51.045      58.954      62.030      58.954    
  51.045      41.259      32.106      24.464      18.817      15.334      13.919      14.584      17.565      23.025    
  32.557      49.792      72.052      91.169      226.34      209.55      165.62      110.84      63.459      34.622    
  23.025      18.587      17.787      20.331      26.225      35.657      49.377      68.158      89.229      106.37    
  113.02      106.37      89.229      68.158      49.377      35.657      26.225      20.331      17.787      18.587    
  23.025      34.622      63.459      110.84      165.62      209.55      432.87      403.73      325.86      224.23    
  129.17      63.459      32.557      24.082      22.858      26.682      35.586      50.752      75.590      110.30    
  148.73      179.49      191.33      179.49      148.73      110.30      75.590      50.752      35.586      26.682    
  22.858      24.082      32.557      63.459      129.17      224.23      325.86      403.73      686.06      643.87    
  529.47      375.56      224.23      110.84      49.792      30.519      28.608      33.753      46.142      69.672    
  109.13      163.31      222.02      268.30      285.96      268.30      222.02      163.31      109.13      69.672    
  46.142      33.753      28.608      30.519      49.792      110.84      224.23      375.56      529.47      643.87    
  929.35      876.04      730.00      529.47      325.86      165.62      72.052      37.787      34.057      40.378    
  56.604      89.080      143.01      215.57      292.83      353.02      375.85      353.02      292.83      215.57    
  143.01      89.080      56.604      40.378      34.057      37.787      72.052      165.62      325.86      529.47    
  730.00      876.04      1103.7      1043.1      876.04      643.87      403.73      209.55      91.169      44.153    
  38.004      45.153      64.516      103.76      168.15      253.58      343.57      413.15      439.44      413.15    
  343.57      253.58      168.15      103.76      64.516      45.153      38.004      44.153      91.169      209.55    
  403.73      643.87      876.04      1043.1      1103.7      1043.1      876.04      643.87      403.73      209.55    
  91.169      44.153      38.004      45.153      64.516      103.76      168.15      253.58      343.57      413.15    
  439.44      413.15      343.57      253.58      168.15      103.76      64.516      45.153      38.004      44.153    
  91.169      209.55      403.73      643.87      876.04      1043.1      1043.1      984.95      825.06      603.73    
  376.21      193.86      84.230      41.816      36.625      43.484      61.722      98.586      159.34      240.32    
  325.94      392.31      417.42      392.31      325.94      240.32      159.34      98.586      61.722      43.484    
  36.625      41.816      84.230      193.86      376.21      603.73      825.06      984.95      876.04      825.06    
  685.70      495.12      302.83      152.92      66.708      36.037      32.857      38.928      54.263      84.725    
  135.47      204.04      277.31      334.54      356.26      334.54      277.31      204.04      135.47      84.725    
  54.263      38.928      32.857      36.037      66.708      152.92      302.83      495.12      685.70      825.06    
  643.87      603.73      495.12      349.61      207.51      102.16      46.451      29.386      27.653      32.596    
  44.387      66.453      103.45      154.41      209.82      253.60      270.32      253.60      209.82      154.41    
  103.45      66.453      44.387      32.596      27.653      29.386      46.451      102.16      207.51      349.61    
  495.12      603.73      403.73      376.21      302.83      207.51      119.06      58.698      30.919      23.295    
  22.156      25.833      34.357      48.670      71.902      104.39      140.44      169.36      180.50      169.36    
  140.44      104.39      71.902      48.670      34.357      25.833      22.156      23.295      30.919      58.698    
  119.06      207.51      302.83      376.21      209.55      193.86      152.92      102.16      58.698      32.666    
  22.258      18.041      17.301      19.749      25.395      34.412      47.329      64.869      84.534      100.54    
  106.76      100.54      84.534      64.869      47.329      34.412      25.395      19.749      17.301      18.041    
  22.258      32.666      58.698      102.16      152.92      193.86      91.169      84.230      66.708      46.451    
  30.919      22.258      17.048      14.212      13.588      14.952      18.292      23.701      31.015      39.680    
  48.843      56.220      59.086      56.220      48.843      39.680      31.015      23.701      18.292      14.952    
  13.588      14.212      17.048      22.258      30.919      46.451      66.708      84.230      44.153      41.816    
  36.037      29.386      23.295      18.041      14.212      11.952      11.120      11.562      13.239      16.153    
  20.168      24.840      29.353      32.675      33.910      32.675      29.353      24.840      20.168      16.153    
  13.239      11.562      11.120      11.952      14.212      18.041      23.295      29.386      36.037      41.816    
  38.004      36.625      32.857      27.653      22.156      17.301      13.588      11.120      9.7776      9.4144    
  9.9320      11.255      13.242      15.610      17.906      19.589      20.210      19.589      17.906      15.610    
  13.242      11.255      9.9320      9.4144      9.7776      11.120      13.588      17.301      22.156      27.653    
  32.857      36.625      45.153      43.484      38.928      32.596      25.833      19.749      14.952      11.562    
  9.4144      8.2713      7.9332      8.2419      9.0344      10.100      11.174      11.971      12.265      11.971    
  11.174      10.100      9.0344      8.2419      7.9332      8.2713      9.4144      11.562      14.952      19.749    
  25.833      32.596      38.928      43.484      64.516      61.722      54.263      44.387      34.357      25.395    
  18.292      13.239      9.9320      7.9332      6.8752      6.4893      6.5610      6.8991      7.3245      7.6694    
  7.8017      7.6694      7.3245      6.8991      6.5610      6.4893      6.8752      7.9332      9.9320      13.239    
  18.292      25.395      34.357      44.387      54.263      61.722      103.76      98.586      84.725      66.453    
  48.670      34.412      23.701      16.153      11.255      8.2419      6.4893      5.5664      5.1685      5.0807    
  5.1568      5.2761      5.3316      5.2761      5.1568      5.0807      5.1685      5.5664      6.4893      8.2419    
  11.255      16.153      23.701      34.412      48.670      66.453      84.725      98.586      168.15      159.34    
  135.47      103.45      71.902      47.329      31.015      20.168      13.242      9.0344      6.5610      5.1685    
  4.4180      4.0386      3.8942      3.8861      3.9023      3.8861      3.8942      4.0386      4.4180      5.1685    
  6.5610      9.0344      13.242      20.168      31.015      47.329      71.902      103.45      135.47      159.34    
  253.58      240.32      204.04      154.41      104.39      64.869      39.680      24.840      15.610      10.100    
  6.8991      5.0807      4.0386      3.4263      3.1111      3.0121      3.0031      3.0121      3.1111      3.4263    
  4.0386      5.0807      6.8991      10.100      15.610      24.840      39.680      64.869      104.39      154.41    
  204.04      240.32      343.57      325.94      277.31      209.82      140.44      84.534      48.843      29.353    
  17.906      11.174      7.3245      5.1568      3.8942      3.1111      2.6744      2.5163      2.4933      2.5163    
  2.6744      3.1111      3.8942      5.1568      7.3245      11.174      17.906      29.353      48.843      84.534    
  140.44      209.82      277.31      325.94      413.15      392.31      334.54      253.60      169.36      100.54    
  56.220      32.675      19.589      11.971      7.6694      5.2761      3.8861      3.0121      2.5163      2.3360    
  2.3103      2.3360      2.5163      3.0121      3.8861      5.2761      7.6694      11.971      19.589      32.675    
  56.220      100.54      169.36      253.60      334.54      392.31      439.44      417.42      356.26      270.32    
  180.50      106.76      59.086      33.910      20.210      12.265      7.8017      5.3316      3.9023      3.0031    
  2.4933      2.3103      2.2857      2.3103      2.4933      3.0031      3.9023      5.3316      7.8017      12.265    
  20.210      33.910      59.086      106.76      180.50      270.32      356.26      417.42      413.15      392.31    
  334.54      253.60      169.36      100.54      56.220      32.675      19.589      11.971      7.6694      5.2761    
  3.8861      3.0121      2.5163      2.3360      2.3103      2.3360      2.5163      3.0121      3.8861      5.2761    
  7.6694      11.971      19.589      32.675      56.220      100.54      169.36      253.60      334.54      392.31    
  343.57      325.94      277.31      209.82      140.44      84.534      48.843      29.353      17.906      11.174    
  7.3245      5.1568      3.8942      3.1111      2.6744      2.5163      2.4933      2.5163      2.6744      3.1111    
  3.8942      5.1568      7.3245      11.174      17.906      29.353      48.843      84.534      140.44      209.82    
  277.31      325.94      253.58      240.32      204.04      154.41      104.39      64.869      39.680      24.840    
  15.610      10.100      6.8991      5.0807      4.0386      3.4263      3.1111      3.0121      3.0031      3.0121    
  3.1111      3.4263      4.0386      5.0807      6.8991      10.100      15.610      24.840      39.680      64.869    
  104.39      154.41      204.04      240.32      168.15      159.34      135.47      103.45      71.902      47.329    
  31.015      20.168      13.242      9.0344      6.5610      5.1685      4.4180      4.0386      3.8942      3.8861    
  3.9023      3.8861      3.8942      4.0386      4.4180      5.1685      6.5610      9.0344      13.242      20.168    
  31.015      47.329      71.902      103.45      135.47      159.34      103.76      98.586      84.725      66.453    
  48.670      34.412      23.701      16.153      11.255      8.2419      6.4893      5.5664      5.1685      5.0807    
  5.1568      5.2761      5.3316      5.2761      5.1568      5.0807      5.1685      5.5664      6.4893      8.2419    
  11.255      16.153      23.701      34.412      48.670      66.453      84.725      98.586      64.516      61.722    
  54.263      44.387      34.357      25.395      18.292      13.239      9.9320      7.9332      6.8752      6.4893    
  6.5610      6.8991      7.3245      7.6694      7.8017      7.6694      7.3245      6.8991      6.5610      6.4893    
  6.8752      7.9332      9.9320      13.239      18.292      25.395      34.357      44.387      54.263      61.722    
  45.153      43.484      38.928      32.596      25.833      19.749      14.952      11.562      9.4144      8.2713    
  7.9332      8.2419      9.0344      10.100      11.174      11.971      12.265      11.971      11.174      10.100    
  9.0344      8.2419      7.9332      8.2713      9.4144      11.562      14.952      19.749      25.833      32.596    
  38.928      43.484      38.004      36.625      32.857      27.653      22.156      17.301      13.588      11.120    
  9.7776      9.4144      9.9320      11.255      13.242      15.610      17.906      19.589      20.210      19.589    
  17.906      15.610      13.242      11.255      9.9320      9.4144      9.7776      11.120      13.588      17.301    
  22.156      27.653      32.857      36.625      44.153      41.816      36.037      29.386      23.295      18.041    
  14.212      11.952      11.120      11.562      13.239      16.153      20.168      24.840      29.353      32.675    
  33.910      32.675      29.353      24.840      20.168      16.153      13.239      11.562      11.120      11.952    
  14.212      18.041      23.295      29.386      36.037      41.816      91.169      84.230      66.708      46.451    
  30.919      22.258      17.048      14.212      13.588      14.952      18.292      23.701      31.015      39.680    
  48.843      56.220      59.086      56.220      48.843      39.680      31.015      23.701      18.292      14.952    
  13.588      14.212      17.048      22.258      30.919      46.451      66.708      84.230      209.55      193.86    
  152.92      102.16      58.698      32.666      22.258      18.041      17.301      19.749      25.395      34.412    
  47.329      64.869      84.534      100.54      106.76      100.54      84.534      64.869      47.329      34.412    
  25.395      19.749      17.301      18.041      22.258      32.666      58.698      102.16      152.92      193.86    
  403.73      376.21      302.83      207.51      119.06      58.698      30.919      23.295      22.156      25.833    
  34.357      48.670      71.902      104.39      140.44      169.36      180.50      169.36      140.44      104.39    
  71.902      48.670      34.357      25.833      22.156      23.295      30.919      58.698      119.06      207.51    
  302.83      376.21      643.87      603.73      495.12      349.61      207.51      102.16      46.451      29.386    
  27.653      32.596      44.387      66.453      103.45      154.41      209.82      253.60      270.32      253.60    
  209.82      154.41      103.45      66.453      44.387      32.596      27.653      29.386      46.451      102.16    
  207.51      349.61      495.12      603.73      876.04      825.06      685.70      495.12      302.83      152.92    
  66.708      36.037      32.857      38.928      54.263      84.725      135.47      204.04      277.31      334.54    
  356.26      334.54      277.31      204.04      135.47      84.725      54.263      38.928      32.857      36.037    
  66.708      152.92      302.83      495.12      685.70      825.06      1043.1      984.95      825.06      603.73    
  376.21      193.86      84.230      41.816      36.625      43.484      61.722      98.586      159.34      240.32    
  325.94      392.31      417.42      392.31      325.94      240.32      159.34      98.586      61.722      43.484    
  36.625      41.816      84.230      193.86      376.21      603.73      825.06      984.95      929.35      876.04    
  730.00      529.47      325.86      165.62      72.052      37.787      34.057      40.378      56.604      89.080    
  143.01      215.57      292.83      353.02      375.85      353.02      292.83      215.57      143.01      89.080    
  56.604      40.378      34.057      37.787      72.052      165.62      325.86      529.47      730.00      876.04    
  876.04      825.06      685.70      495.12      302.83      152.92      66.708      36.037      32.857      38.928    
  54.263      84.725      135.47      204.04      277.31      334.54      356.26      334.54      277.31      204.04    
  135.47      84.725      54.263      38.928      32.857      36.037      66.708      152.92      302.83      495.12    
  685.70      825.06      730.00      685.70      565.34      402.75      241.85      120.06      53.355      31.675    
  29.576      34.954      48.005      73.114      115.19      172.73      234.87      283.74      302.36      283.74    
  234.87      172.73      115.19      73.114      48.005      34.954      29.576      31.675      53.355      120.06    
  241.85      402.75      565.34      685.70      529.47      495.12      402.75      280.59      163.77      80.051    
  38.244      26.424      25.037      29.421      39.659      57.909      88.297      130.52      176.84      213.69    
  227.82      213.69      176.84      130.52      88.297      57.909      39.659      29.421      25.037      26.424    
  38.244      80.051      163.77      280.59      402.75      495.12      325.86      302.83      241.85      163.77    
  93.122      46.874      26.922      21.139      20.228      23.497      30.976      43.130      62.161      88.714    
  118.35      142.27      151.51      142.27      118.35      88.714      62.161      43.130      30.976      23.497    
  20.228      21.139      26.922      46.874      93.122      163.77      241.85      302.83      165.62      152.92    
  120.06      80.051      46.874      27.925      20.163      16.540      15.957      18.142      23.105      31.004    
  41.901      56.227      72.192      85.205      90.266      85.205      72.192      56.227      41.901      31.004    
  23.105      18.142      15.957      16.540      20.163      27.925      46.874      80.051      120.06      152.92    
  72.052      66.708      53.355      38.244      26.922      20.163      15.630      13.184      12.668      13.888    
  16.838      21.596      28.013      35.465      43.052      49.066      51.391      49.066      43.052      35.465    
  28.013      21.596      16.838      13.888      12.668      13.184      15.630      20.163      26.922      38.244    
  53.355      66.708      37.787      36.037      31.675      26.424      21.139      16.540      13.184      11.195    
  10.459      10.853      12.343      14.926      18.473      22.588      26.553      29.463      30.537      29.463    
  26.553      22.588      18.473      14.926      12.343      10.853      10.459      11.195      13.184      16.540    
  21.139      26.424      31.675      36.037      34.057      32.857      29.576      25.037      20.228      15.957    
  12.668      10.459      9.2466      8.9115      9.3716      10.556      12.334      14.444      16.484      17.977    
  18.526      17.977      16.484      14.444      12.334      10.556      9.3716      8.9115      9.2466      10.459    
  12.668      15.957      20.228      25.037      29.576      32.857      40.378      38.928      34.954      29.421    
  23.497      18.142      13.888      10.853      8.9115      7.8695      7.5589      7.8398      8.5625      9.5325    
  10.507      11.228      11.494      11.228      10.507      9.5325      8.5625      7.8398      7.5589      7.8695    
  8.9115      10.853      13.888      18.142      23.497      29.421      34.954      38.928      56.604      54.263    
  48.005      39.659      30.976      23.105      16.838      12.343      9.3716      7.5589      6.5948      6.2463    
  6.3218      6.6448      7.0465      7.3696      7.4930      7.3696      7.0465      6.6448      6.3218      6.2463    
  6.5948      7.5589      9.3716      12.343      16.838      23.105      30.976      39.659      48.005      54.263    
  89.080      84.725      73.114      57.909      43.130      31.004      21.596      14.926      10.556      7.8398    
  6.2463      5.4055      5.0508      4.9874      5.0745      5.1948      5.2490      5.1948      5.0745      4.9874    
  5.0508      5.4055      6.2463      7.8398      10.556      14.926      21.596      31.004      43.130      57.909    
  73.114      84.725      143.01      135.47      115.19      88.297      62.161      41.901      28.013      18.473    