unknown system                          
   1.00000000000000     
     3.850000    0.000000    0.000000
     0.000000    3.850000    0.000000
     0.000000    0.000000    3.850000
   Sr   Fe   O 
     1     1     3
Direct
  0.500000  0.500000  0.500000
  0.000000  0.000000  0.000000
  0.500000  0.000000  0.000000
  0.000000  0.500000  0.000000
  0.000000  0.000000  0.500000
 
   32   32   32
 0.11667824281E+04 0.11036727019E+04 0.92935184283E+03 0.68605803857E+03 0.43287005936E+03
 0.22633974446E+03 0.98713532285E+02 0.46728246883E+02 0.39449502432E+02 0.46907473327E+02
 0.67479991571E+02 0.10923046900E+03 0.17740555959E+03 0.26743194534E+03 0.36189762998E+03
 0.43475995788E+03 0.46225806829E+03 0.43475995788E+03 0.36189762998E+03 0.26743194534E+03
 0.17740555959E+03 0.10923046900E+03 0.67479991571E+02 0.46907473327E+02 0.39449502432E+02
 0.46728246883E+02 0.98713532285E+02 0.22633974446E+03 0.43287005936E+03 0.68605803857E+03
 0.92935184283E+03 0.11036727019E+04 0.11036727019E+04 0.10430735302E+04 0.87603974762E+03
 0.64386976329E+03 0.40372994257E+03 0.20954924268E+03 0.91169200612E+02 0.44153093502E+02
 0.38004252429E+02 0.45153265093E+02 0.64516479956E+02 0.10376010950E+03 0.16814706544E+03
 0.25358090291E+03 0.34356511402E+03 0.41314668697E+03 0.43944001949E+03 0.41314668697E+03
 0.34356511402E+03 0.25358090291E+03 0.16814706544E+03 0.10376010950E+03 0.64516479956E+02
 0.45153265093E+02 0.38004252429E+02 0.44153093502E+02 0.91169200612E+02 0.20954924268E+03
 0.40372994257E+03 0.64386976329E+03 0.87603974762E+03 0.10430735302E+04 0.92935184283E+03
 0.87603974762E+03 0.72999887764E+03 0.52946716981E+03 0.32585753172E+03 0.16562233547E+03
 0.72052069219E+02 0.37786928397E+02 0.34057364674E+02 0.40377750257E+02 0.56604041019E+02
 0.89079748115E+02 0.14301083865E+03 0.21556582517E+03 0.29282997378E+03 0.35301974562E+03
 0.37584863341E+03 0.35301974562E+03 0.29282997378E+03 0.21556582517E+03 0.14301083865E+03
 0.89079748115E+02 0.56604041019E+02 0.40377750257E+02 0.34057364674E+02 0.37786928397E+02
 0.72052069219E+02 0.16562233547E+03 0.32585753172E+03 0.52946716981E+03 0.72999887764E+03
 0.87603974762E+03 0.68605803857E+03 0.64386976329E+03 0.52946716981E+03 0.37555531561E+03
 0.22422553587E+03 0.11084316923E+03 0.49792162859E+02 0.30518675901E+02 0.28608111636E+02
 0.33752718800E+02 0.46141931200E+02 0.69671760160E+02 0.10913447377E+03 0.16331316252E+03
 0.22202092812E+03 0.26830156142E+03 0.28595968899E+03 0.26830156142E+03 0.22202092812E+03
 0.16331316252E+03 0.10913447377E+03 0.69671760160E+02 0.46141931200E+02 0.33752718800E+02
 0.28608111636E+02 0.30518675901E+02 0.49792162859E+02 0.11084316923E+03 0.22422553587E+03
 0.37555531561E+03 0.52946716981E+03 0.64386976329E+03 0.43287005936E+03 0.40372994257E+03
 0.32585753172E+03 0.22422553587E+03 0.12917333646E+03 0.63459070294E+02 0.32556513673E+02
 0.24082423385E+02 0.22858347131E+02 0.26682069104E+02 0.35586260552E+02 0.50751656649E+02
 0.75590089117E+02 0.11030163963E+03 0.14872609980E+03 0.17949415968E+03 0.19132747886E+03
 0.17949415968E+03 0.14872609980E+03 0.11030163963E+03 0.75590089117E+02 0.50751656649E+02
 0.35586260552E+02 0.26682069104E+02 0.22858347131E+02 0.24082423385E+02 0.32556513673E+02
 0.63459070294E+02 0.12917333646E+03 0.22422553587E+03 0.32585753172E+03 0.40372994257E+03
 0.22633974446E+03 0.20954924268E+03 0.16562233547E+03 0.11084316923E+03 0.63459070294E+02
 0.34621561038E+02 0.23025490858E+02 0.18587499796E+02 0.17787250216E+02 0.20330697124E+02
 0.26225141817E+02 0.35657080996E+02 0.49377498712E+02 0.68158351183E+02 0.89229485112E+02
 0.10636773764E+03 0.11301788327E+03 0.10636773764E+03 0.89229485112E+02 0.68158351183E+02
 0.49377498712E+02 0.35657080996E+02 0.26225141817E+02 0.20330697124E+02 0.17787250216E+02
 0.18587499796E+02 0.23025490858E+02 0.34621561038E+02 0.63459070294E+02 0.11084316923E+03
 0.16562233547E+03 0.20954924268E+03 0.98713532285E+02 0.91169200612E+02 0.72052069219E+02
 0.49792162859E+02 0.32556513673E+02 0.23025490858E+02 0.17564643124E+02 0.14584275624E+02
 0.13919364359E+02 0.15334171101E+02 0.18817119320E+02 0.24463763485E+02 0.32105711106E+02
 0.41258992572E+02 0.51045233575E+02 0.58954420113E+02 0.62029915526E+02 0.58954420113E+02
 0.51045233575E+02 0.41258992572E+02 0.32105711106E+02 0.24463763485E+02 0.18817119320E+02
 0.15334171101E+02 0.13919364359E+02 0.14584275624E+02 0.17564643124E+02 0.23025490858E+02
 0.32556513673E+02 0.49792162859E+02 0.72052069219E+02 0.91169200612E+02 0.46728246883E+02
 0.44153093502E+02 0.37786928397E+02 0.30518675901E+02 0.24082423385E+02 0.18587499796E+02
 0.14584275624E+02 0.12223679725E+02 0.11354839266E+02 0.11814602217E+02 0.13560063325E+02
 0.16595131015E+02 0.20781881769E+02 0.25657809151E+02 0.30372016556E+02 0.33853165323E+02
 0.35155082177E+02 0.33853165323E+02 0.30372016556E+02 0.25657809151E+02 0.20781881769E+02
 0.16595131015E+02 0.13560063325E+02 0.11814602217E+02 0.11354839266E+02 0.12223679725E+02
 0.14584275624E+02 0.18587499796E+02 0.24082423385E+02 0.30518675901E+02 0.37786928397E+02
 0.44153093502E+02 0.39449502432E+02 0.38004252429E+02 0.34057364674E+02 0.28608111636E+02
 0.22858347131E+02 0.17787250216E+02 0.13919364359E+02 0.11354839266E+02 0.99656838225E+01
 0.95925256148E+01 0.10131617697E+02 0.11505058315E+02 0.13570057495E+02 0.16032283910E+02
 0.18421797210E+02 0.20175966483E+02 0.20822608534E+02 0.20175966483E+02 0.18421797210E+02
 0.16032283910E+02 0.13570057495E+02 0.11505058315E+02 0.10131617697E+02 0.95925256148E+01
 0.99656838225E+01 0.11354839266E+02 0.13919364359E+02 0.17787250216E+02 0.22858347131E+02
 0.28608111636E+02 0.34057364674E+02 0.38004252429E+02 0.46907473327E+02 0.45153265093E+02
 0.40377750257E+02 0.33752718800E+02 0.26682069104E+02 0.20330697124E+02 0.15334171101E+02
 0.11814602217E+02 0.95925256148E+01 0.84134404185E+01 0.80661344780E+01 0.83858569455E+01
 0.92044140067E+01 0.10305641395E+02 0.11415774993E+02 0.12240886927E+02 0.12546149847E+02
 0.12240886927E+02 0.11415774993E+02 0.10305641395E+02 0.92044140067E+01 0.83858569455E+01
 0.80661344780E+01 0.84134404185E+01 0.95925256148E+01 0.11814602217E+02 0.15334171101E+02
 0.20330697124E+02 0.26682069104E+02 0.33752718800E+02 0.40377750257E+02 0.45153265093E+02
 0.67479991571E+02 0.64516479956E+02 0.56604041019E+02 0.46141931200E+02 0.35586260552E+02
 0.26225141817E+02 0.18817119320E+02 0.13560063325E+02 0.10131617697E+02 0.80661344780E+01
 0.69752772329E+01 0.65769658748E+01 0.66482383662E+01 0.69925412439E+01 0.74270300061E+01
 0.77802411784E+01 0.79159532295E+01 0.77802411784E+01 0.74270300061E+01 0.69925412439E+01
 0.66482383662E+01 0.65769658748E+01 0.69752772329E+01 0.80661344780E+01 0.10131617697E+02
 0.13560063325E+02 0.18817119320E+02 0.26225141817E+02 0.35586260552E+02 0.46141931200E+02
 0.56604041019E+02 0.64516479956E+02 0.10923046900E+03 0.10376010950E+03 0.89079748115E+02
 0.69671760160E+02 0.50751656649E+02 0.35657080996E+02 0.24463763485E+02 0.16595131015E+02
 0.11505058315E+02 0.83858569455E+01 0.65769658748E+01 0.56258538815E+01 0.52135492027E+01
 0.51178551656E+01 0.51905557508E+01 0.53099484711E+01 0.53660467328E+01 0.53099484711E+01
 0.51905557508E+01 0.51178551656E+01 0.52135492027E+01 0.56258538815E+01 0.65769658748E+01
 0.83858569455E+01 0.11505058315E+02 0.16595131015E+02 0.24463763485E+02 0.35657080996E+02
 0.50751656649E+02 0.69671760160E+02 0.89079748115E+02 0.10376010950E+03 0.17740555959E+03
 0.16814706544E+03 0.14301083865E+03 0.10913447377E+03 0.75590089117E+02 0.49377498712E+02
 0.32105711106E+02 0.20781881769E+02 0.13570057495E+02 0.92044140067E+01 0.66482383662E+01
 0.52135492027E+01 0.44394016676E+01 0.40438272015E+01 0.38892871304E+01 0.38774676488E+01
 0.38932923192E+01 0.38774676488E+01 0.38892871304E+01 0.40438272015E+01 0.44394016676E+01
 0.52135492027E+01 0.66482383662E+01 0.92044140067E+01 0.13570057495E+02 0.20781881769E+02
 0.32105711106E+02 0.49377498712E+02 0.75590089117E+02 0.10913447377E+03 0.14301083865E+03
 0.16814706544E+03 0.26743194534E+03 0.25358090291E+03 0.21556582517E+03 0.16331316252E+03
 0.11030163963E+03 0.68158351183E+02 0.41258992572E+02 0.25657809151E+02 0.16032283910E+02
 0.10305641395E+02 0.69925412439E+01 0.51178551656E+01 0.40438272015E+01 0.34082332793E+01
 0.30774885242E+01 0.29722055610E+01 0.29623658925E+01 0.29722055610E+01 0.30774885242E+01
 0.34082332793E+01 0.40438272015E+01 0.51178551656E+01 0.69925412439E+01 0.10305641395E+02
 0.16032283910E+02 0.25657809151E+02 0.41258992572E+02 0.68158351183E+02 0.11030163963E+03
 0.16331316252E+03 0.21556582517E+03 0.25358090291E+03 0.36189762998E+03 0.34356511402E+03
 0.29282997378E+03 0.22202092812E+03 0.14872609980E+03 0.89229485112E+02 0.51045233575E+02
 0.30372016556E+02 0.18421797210E+02 0.11415774993E+02 0.74270300061E+01 0.51905557508E+01
 0.38892871304E+01 0.30774885242E+01 0.26211382872E+01 0.24552482092E+01 0.24311912947E+01
 0.24552482092E+01 0.26211382872E+01 0.30774885242E+01 0.38892871304E+01 0.51905557508E+01
 0.74270300061E+01 0.11415774993E+02 0.18421797210E+02 0.30372016556E+02 0.51045233575E+02
 0.89229485112E+02 0.14872609980E+03 0.22202092812E+03 0.29282997378E+03 0.34356511402E+03
 0.43475995788E+03 0.41314668697E+03 0.35301974562E+03 0.26830156142E+03 0.17949415968E+03
 0.10636773764E+03 0.58954420113E+02 0.33853165323E+02 0.20175966483E+02 0.12240886927E+02
 0.77802411784E+01 0.53099484711E+01 0.38774676488E+01 0.29722055610E+01 0.24552482092E+01
 0.22669449095E+01 0.22404395231E+01 0.22669449095E+01 0.24552482092E+01 0.29722055610E+01
 0.38774676488E+01 0.53099484711E+01 0.77802411784E+01 0.12240886927E+02 0.20175966483E+02
 0.33853165323E+02 0.58954420113E+02 0.10636773764E+03 0.17949415968E+03 0.26830156142E+03
 0.35301974562E+03 0.41314668697E+03 0.46225806829E+03 0.43944001949E+03 0.37584863341E+03
 0.28595968899E+03 0.19132747886E+03 0.11301788327E+03 0.62029915526E+02 0.35155082177E+02
 0.20822608534E+02 0.12546149847E+02 0.79159532295E+01 0.53660467328E+01 0.38932923192E+01
 0.29623658925E+01 0.24311912947E+01 0.22404395231E+01 0.22151517892E+01 0.22404395231E+01
 0.24311912947E+01 0.29623658925E+01 0.38932923192E+01 0.53660467328E+01 0.79159532295E+01
 0.12546149847E+02 0.20822608534E+02 0.35155082177E+02 0.62029915526E+02 0.11301788327E+03
 0.19132747886E+03 0.28595968899E+03 0.37584863341E+03 0.43944001949E+03 0.43475995788E+03
 0.41314668697E+03 0.35301974562E+03 0.26830156142E+03 0.17949415968E+03 0.10636773764E+03
 0.58954420113E+02 0.33853165323E+02 0.20175966483E+02 0.12240886927E+02 0.77802411784E+01
 0.53099484711E+01 0.38774676488E+01 0.29722055610E+01 0.24552482092E+01 0.22669449095E+01
 0.22404395231E+01 0.22669449095E+01 0.24552482092E+01 0.29722055610E+01 0.38774676488E+01
 0.53099484711E+01 0.77802411784E+01 0.12240886927E+02 0.20175966483E+02 0.33853165323E+02
 0.58954420113E+02 0.10636773764E+03 0.17949415968E+03 0.26830156142E+03 0.35301974562E+03
 0.41314668697E+03 0.36189762998E+03 0.34356511402E+03 0.29282997378E+03 0.22202092812E+03
 0.14872609980E+03 0.89229485112E+02 0.51045233575E+02 0.30372016556E+02 0.18421797210E+02
 0.11415774993E+02 0.74270300061E+01 0.51905557508E+01 0.38892871304E+01 0.30774885242E+01
 0.26211382872E+01 0.24552482092E+01 0.24311912947E+01 0.24552482092E+01 0.26211382872E+01
 0.30774885242E+01 0.38892871304E+01 0.51905557508E+01 0.74270300061E+01 0.11415774993E+02
 0.18421797210E+02 0.30372016556E+02 0.51045233575E+02 0.89229485112E+02 0.14872609980E+03
 0.22202092812E+03 0.29282997378E+03 0.34356511402E+03 0.26743194534E+03 0.25358090291E+03
 0.21556582517E+03 0.16331316252E+03 0.11030163963E+03 0.68158351183E+02 0.41258992572E+02
 0.25657809151E+02 0.16032283910E+02 0.10305641395E+02 0.69925412440E+01 0.51178551656E+01
 0.40438272015E+01 0.34082332793E+01 0.30774885242E+01 0.29722055610E+01 0.29623658925E+01
 0.29722055610E+01 0.30774885242E+01 0.34082332793E+01 0.40438272015E+01 0.51178551656E+01
 0.69925412439E+01 0.10305641395E+02 0.16032283910E+02 0.25657809151E+02 0.41258992572E+02
 0.68158351183E+02 0.11030163963E+03 0.16331316252E+03 0.21556582517E+03 0.25358090291E+03
 0.17740555959E+03 0.16814706544E+03 0.14301083865E+03 0.10913447377E+03 0.75590089117E+02
 0.49377498712E+02 0.32105711106E+02 0.20781881769E+02 0.13570057495E+02 0.92044140067E+01
 0.66482383662E+01 0.52135492027E+01 0.44394016676E+01 0.40438272015E+01 0.38892871304E+01
 0.38774676488E+01 0.38932923192E+01 0.38774676488E+01 0.38892871304E+01 0.40438272015E+01
 0.44394016676E+01 0.52135492027E+01 0.66482383662E+01 0.92044140067E+01 0.13570057495E+02
 0.20781881769E+02 0.32105711106E+02 0.49377498712E+02 0.75590089117E+02 0.10913447377E+03
 0.14301083865E+03 0.16814706544E+03 0.10923046900E+03 0.10376010950E+03 0.89079748115E+02
 0.69671760160E+02 0.50751656649E+02 0.35657080996E+02 0.24463763485E+02 0.16595131015E+02
 0.11505058315E+02 0.83858569455E+01 0.65769658748E+01 0.56258538815E+01 0.52135492027E+01
 0.51178551656E+01 0.51905557508E+01 0.53099484711E+01 0.53660467328E+01 0.53099484711E+01
 0.51905557508E+01 0.51178551656E+01 0.52135492027E+01 0.56258538815E+01 0.65769658748E+01
 0.83858569455E+01 0.11505058315E+02 0.16595131015E+02 0.24463763485E+02 0.35657080996E+02
 0.50751656649E+02 0.69671760160E+02 0.89079748115E+02 0.10376010950E+03 0.67479991571E+02
 0.64516479956E+02 0.56604041019E+02 0.46141931200E+02 0.35586260552E+02 0.26225141817E+02
 0.18817119320E+02 0.13560063325E+02 0.10131617697E+02 0.80661344780E+01 0.69752772329E+01
 0.65769658748E+01 0.66482383662E+01 0.69925412439E+01 0.74270300061E+01 0.77802411784E+01
 0.79159532295E+01 0.77802411784E+01 0.74270300061E+01 0.69925412439E+01 0.66482383662E+01
 0.65769658748E+01 0.69752772329E+01 0.80661344780E+01 0.10131617697E+02 0.13560063325E+02
 0.18817119320E+02 0.26225141817E+02 0.35586260552E+02 0.46141931200E+02 0.56604041019E+02
 0.64516479956E+02 0.46907473327E+02 0.45153265093E+02 0.40377750257E+02 0.33752718800E+02
 0.26682069104E+02 0.20330697124E+02 0.15334171101E+02 0.11814602217E+02 0.95925256148E+01
 0.84134404185E+01 0.80661344780E+01 0.83858569455E+01 0.92044140067E+01 0.10305641395E+02
 0.11415774993E+02 0.12240886927E+02 0.12546149847E+02 0.12240886927E+02 0.11415774993E+02
 0.10305641395E+02 0.92044140067E+01 0.83858569455E+01 0.80661344780E+01 0.84134404185E+01
 0.95925256148E+01 0.11814602217E+02 0.15334171101E+02 0.20330697124E+02 0.26682069104E+02
 0.33752718800E+02 0.40377750257E+02 0.45153265093E+02 0.39449502432E+02 0.38004252429E+02
 0.34057364674E+02 0.28608111636E+02 0.22858347131E+02 0.17787250216E+02 0.13919364359E+02
 0.11354839266E+02 0.99656838225E+01 0.95925256148E+01 0.10131617697E+02 0.11505058315E+02
 0.13570057495E+02 0.16032283910E+02 0.18421797210E+02 0.20175966483E+02 0.20822608534E+02
 0.20175966483E+02 0.18421797210E+02 0.16032283910E+02 0.13570057495E+02 0.11505058315E+02
 0.10131617697E+02 0.95925256148E+01 0.99656838225E+01 0.11354839266E+02 0.13919364359E+02
 0.17787250216E+02 0.22858347131E+02 0.28608111636E+02 0.34057364674E+02 0.38004252429E+02
 0.46728246883E+02 0.44153093502E+02 0.37786928397E+02 0.30518675901E+02 0.24082423385E+02
 0.18587499796E+02 0.14584275624E+02 0.12223679725E+02 0.11354839266E+02 0.11814602217E+02
 0.13560063325E+02 0.16595131015E+02 0.20781881769E+02 0.25657809151E+02 0.30372016556E+02
 0.33853165323E+02 0.35155082177E+02 0.33853165323E+02 0.30372016556E+02 0.25657809151E+02
 0.20781881769E+02 0.16595131015E+02 0.13560063325E+02 0.11814602217E+02 0.11354839266E+02
 0.12223679725E+02 0.14584275624E+02 0.18587499796E+02 0.24082423385E+02 0.30518675901E+02
 0.37786928397E+02 0.44153093502E+02 0.98713532285E+02 0.91169200612E+02 0.72052069219E+02
 0.49792162859E+02 0.32556513673E+02 0.23025490858E+02 0.17564643124E+02 0.14584275624E+02
 0.13919364359E+02 0.15334171101E+02 0.18817119320E+02 0.24463763485E+02 0.32105711106E+02
 0.41258992572E+02 0.51045233575E+02 0.58954420113E+02 0.62029915526E+02 0.58954420113E+02
 0.51045233575E+02 0.41258992572E+02 0.32105711106E+02 0.24463763485E+02 0.18817119320E+02
 0.15334171101E+02 0.13919364359E+02 0.14584275624E+02 0.17564643124E+02 0.23025490858E+02
 0.32556513673E+02 0.49792162859E+02 0.72052069219E+02 0.91169200612E+02 0.22633974446E+03
 0.20954924268E+03 0.16562233547E+03 0.11084316923E+03 0.63459070294E+02 0.34621561038E+02
 0.23025490858E+02 0.18587499796E+02 0.17787250216E+02 0.20330697124E+02 0.26225141817E+02
 0.35657080996E+02 0.49377498712E+02 0.68158351183E+02 0.89229485112E+02 0.10636773764E+03
 0.11301788327E+03 0.10636773764E+03 0.89229485112E+02 0.68158351183E+02 0.49377498712E+02
 0.35657080996E+02 0.26225141817E+02 0.20330697124E+02 0.17787250216E+02 0.18587499796E+02
 0.23025490858E+02 0.34621561038E+02 0.63459070294E+02 0.11084316923E+03 0.16562233547E+03
 0.20954924268E+03 0.43287005936E+03 0.40372994257E+03 0.32585753172E+03 0.22422553587E+03
 0.12917333646E+03 0.63459070294E+02 0.32556513673E+02 0.24082423385E+02 0.22858347131E+02
 0.26682069104E+02 0.35586260552E+02 0.50751656649E+02 0.75590089117E+02 0.11030163963E+03
 0.14872609980E+03 0.17949415968E+03 0.19132747886E+03 0.17949415968E+03 0.14872609980E+03
 0.11030163963E+03 0.75590089117E+02 0.50751656649E+02 0.35586260552E+02 0.26682069104E+02
 0.22858347131E+02 0.24082423385E+02 0.32556513673E+02 0.63459070294E+02 0.12917333646E+03
 0.22422553587E+03 0.32585753172E+03 0.40372994257E+03 0.68605803857E+03 0.64386976329E+03
 0.52946716981E+03 0.37555531561E+03 0.22422553587E+03 0.11084316923E+03 0.49792162859E+02
 0.30518675901E+02 0.28608111636E+02 0.33752718800E+02 0.46141931200E+02 0.69671760160E+02
 0.10913447377E+03 0.16331316252E+03 0.22202092812E+03 0.26830156142E+03 0.28595968899E+03
 0.26830156142E+03 0.22202092812E+03 0.16331316252E+03 0.10913447377E+03 0.69671760160E+02
 0.46141931200E+02 0.33752718800E+02 0.28608111636E+02 0.30518675901E+02 0.49792162859E+02
 0.11084316923E+03 0.22422553587E+03 0.37555531561E+03 0.52946716981E+03 0.64386976329E+03
 0.92935184283E+03 0.87603974762E+03 0.72999887764E+03 0.52946716981E+03 0.32585753172E+03
 0.16562233547E+03 0.72052069219E+02 0.37786928397E+02 0.34057364674E+02 0.40377750257E+02
 0.56604041019E+02 0.89079748115E+02 0.14301083865E+03 0.21556582517E+03 0.29282997378E+03
 0.35301974562E+03 0.37584863341E+03 0.35301974562E+03 0.29282997378E+03 0.21556582517E+03
 0.14301083865E+03 0.89079748115E+02 0.56604041019E+02 0.40377750257E+02 0.34057364674E+02
 0.37786928397E+02 0.72052069219E+02 0.16562233547E+03 0.32585753172E+03 0.52946716981E+03
 0.72999887764E+03 0.87603974762E+03 0.11036727019E+04 0.10430735302E+04 0.87603974762E+03
 0.64386976329E+03 0.40372994257E+03 0.20954924268E+03 0.91169200612E+02 0.44153093502E+02
 0.38004252429E+02 0.45153265093E+02 0.64516479956E+02 0.10376010950E+03 0.16814706544E+03
 0.25358090291E+03 0.34356511402E+03 0.41314668697E+03 0.43944001949E+03 0.41314668697E+03
 0.34356511402E+03 0.25358090291E+03 0.16814706544E+03 0.10376010950E+03 0.64516479956E+02
 0.45153265093E+02 0.38004252429E+02 0.44153093502E+02 0.91169200612E+02 0.20954924268E+03
 0.40372994257E+03 0.64386976329E+03 0.87603974762E+03 0.10430735302E+04 0.11036727019E+04
 0.10430735302E+04 0.87603974762E+03 0.64386976329E+03 0.40372994257E+03 0.20954924268E+03
 0.91169200612E+02 0.44153093502E+02 0.38004252429E+02 0.45153265093E+02 0.64516479956E+02
 0.10376010950E+03 0.16814706544E+03 0.25358090291E+03 0.34356511402E+03 0.41314668697E+03
 0.43944001949E+03 0.41314668697E+03 0.34356511402E+03 0.25358090291E+03 0.16814706544E+03
 0.10376010950E+03 0.64516479956E+02 0.45153265093E+02 0.38004252429E+02 0.44153093502E+02
 0.91169200612E+02 0.20954924268E+03 0.40372994257E+03 0.64386976329E+03 0.87603974762E+03
 0.10430735302E+04 0.10430735302E+04 0.98494702606E+03 0.82506253194E+03 0.60373441864E+03
 0.37621001508E+03 0.19385918741E+03 0.84230497903E+02 0.41816253125E+02 0.36624798905E+02
 0.43484202144E+02 0.61722285665E+02 0.98585964589E+02 0.15933555166E+03 0.24032303406E+03
 0.32594066721E+03 0.39231101905E+03 0.41742226570E+03 0.39231101905E+03 0.32594066721E+03
 0.24032303406E+03 0.15933555166E+03 0.98585964589E+02 0.61722285665E+02 0.43484202144E+02
 0.36624798905E+02 0.41816253125E+02 0.84230497903E+02 0.19385918741E+03 0.37621001508E+03
 0.60373441864E+03 0.82506253194E+03 0.98494702606E+03 0.87603974762E+03 0.82506253194E+03
 0.68570265043E+03 0.49512163615E+03 0.30282948596E+03 0.15292029247E+03 0.66708068302E+02
 0.36037096524E+02 0.32856954962E+02 0.38927860548E+02 0.54262811722E+02 0.84725324886E+02
 0.13547114485E+03 0.20403782015E+03 0.27731472871E+03 0.33453571787E+03 0.35626469417E+03
 0.33453571787E+03 0.27731472871E+03 0.20403782015E+03 0.13547114485E+03 0.84725324886E+02
 0.54262811722E+02 0.38927860548E+02 0.32856954962E+02 0.36037096524E+02 0.66708068302E+02
 0.15292029247E+03 0.30282948596E+03 0.49512163615E+03 0.68570265043E+03 0.82506253194E+03
 0.64386976329E+03 0.60373441864E+03 0.49512163615E+03 0.34961092777E+03 0.20750601407E+03
 0.10216230471E+03 0.46451030523E+02 0.29386175762E+02 0.27652567542E+02 0.32595927353E+02
 0.44387002890E+02 0.66452712504E+02 0.10344849623E+03 0.15441346726E+03 0.20981910423E+03
 0.25359620705E+03 0.27031828498E+03 0.25359620705E+03 0.20981910423E+03 0.15441346726E+03
 0.10344849623E+03 0.66452712504E+02 0.44387002890E+02 0.32595927353E+02 0.27652567542E+02
 0.29386175762E+02 0.46451030523E+02 0.10216230471E+03 0.20750601407E+03 0.34961092777E+03
 0.49512163615E+03 0.60373441864E+03 0.40372994257E+03 0.37621001508E+03 0.30282948596E+03
 0.20750601407E+03 0.11905554353E+03 0.58698410683E+02 0.30919238535E+02 0.23295480041E+02
 0.22156141238E+02 0.25833040796E+02 0.34357287473E+02 0.48670330118E+02 0.71902446817E+02
 0.10438895211E+03 0.14043743987E+03 0.16936092912E+03 0.18049660753E+03 0.16936092912E+03
 0.14043743987E+03 0.10438895211E+03 0.71902446817E+02 0.48670330118E+02 0.34357287473E+02
 0.25833040796E+02 0.22156141238E+02 0.23295480041E+02 0.30919238535E+02 0.58698410683E+02
 0.11905554353E+03 0.20750601407E+03 0.30282948596E+03 0.37621001508E+03 0.20954924268E+03
 0.19385918741E+03 0.15292029247E+03 0.10216230471E+03 0.58698410683E+02 0.32666235868E+02
 0.22257690878E+02 0.18041008401E+02 0.17300730538E+02 0.19749181299E+02 0.25394742733E+02
 0.34412177228E+02 0.47328912808E+02 0.64869278877E+02 0.84534193821E+02 0.10054314425E+03
 0.10675944782E+03 0.10054314425E+03 0.84534193821E+02 0.64869278877E+02 0.47328912808E+02
 0.34412177228E+02 0.25394742733E+02 0.19749181299E+02 0.17300730538E+02 0.18041008401E+02
 0.22257690878E+02 0.32666235868E+02 0.58698410683E+02 0.10216230471E+03 0.15292029247E+03
 0.19385918741E+03 0.91169200612E+02 0.84230497903E+02 0.66708068302E+02 0.46451030523E+02
 0.30919238535E+02 0.22257690878E+02 0.17047964609E+02 0.14212281645E+02 0.13588472339E+02
 0.14951768016E+02 0.18292411682E+02 0.23700882394E+02 0.31014958334E+02 0.39679955072E+02
 0.48842854905E+02 0.56220498377E+02 0.59086402039E+02 0.56220498377E+02 0.48842854905E+02
 0.39679955072E+02 0.31014958334E+02 0.23700882394E+02 0.18292411682E+02 0.14951768016E+02
 0.13588472339E+02 0.14212281645E+02 0.17047964609E+02 0.22257690878E+02 0.30919238535E+02
 0.46451030523E+02 0.66708068302E+02 0.84230497903E+02 0.44153093502E+02 0.41816253125E+02
 0.36037096524E+02 0.29386175762E+02 0.23295480041E+02 0.18041008401E+02 0.14212281645E+02
 0.11952263391E+02 0.11119584654E+02 0.11561841496E+02 0.13238978275E+02 0.16152744531E+02
 0.20167996741E+02 0.24839694293E+02 0.29352965168E+02 0.32674758820E+02 0.33910172718E+02
 0.32674758820E+02 0.29352965168E+02 0.24839694293E+02 0.20167996741E+02 0.16152744531E+02
 0.13238978275E+02 0.11561841496E+02 0.11119584654E+02 0.11952263391E+02 0.14212281645E+02
 0.18041008401E+02 0.23295480041E+02 0.29386175762E+02 0.36037096524E+02 0.41816253125E+02
 0.38004252429E+02 0.36624798905E+02 0.32856954962E+02 0.27652567542E+02 0.22156141238E+02
 0.17300730538E+02 0.13588472339E+02 0.11119584654E+02 0.97775694952E+01 0.94143521580E+01
 0.99320005658E+01 0.11254542000E+02 0.13242262823E+02 0.15610035105E+02 0.17905521251E+02
 0.19589287324E+02 0.20209698674E+02 0.19589287324E+02 0.17905521251E+02 0.15610035105E+02
 0.13242262823E+02 0.11254542000E+02 0.99320005658E+01 0.94143521580E+01 0.97775694952E+01
 0.11119584654E+02 0.13588472339E+02 0.17300730538E+02 0.22156141238E+02 0.27652567542E+02
 0.32856954962E+02 0.36624798905E+02 0.45153265093E+02 0.43484202144E+02 0.38927860548E+02
 0.32595927353E+02 0.25833040796E+02 0.19749181299E+02 0.14951768016E+02 0.11561841496E+02
 0.94143521580E+01 0.82713273132E+01 0.79331830922E+01 0.82419447093E+01 0.90343664776E+01
 0.10100107216E+02 0.11173515629E+02 0.11970595061E+02 0.12265317884E+02 0.11970595061E+02
 0.11173515629E+02 0.10100107216E+02 0.90343664776E+01 0.82419447093E+01 0.79331830922E+01
 0.82713273132E+01 0.94143521580E+01 0.11561841496E+02 0.14951768016E+02 0.19749181299E+02
 0.25833040796E+02 0.32595927353E+02 0.38927860548E+02 0.43484202144E+02 0.64516479956E+02
 0.61722285665E+02 0.54262811722E+02 0.44387002890E+02 0.34357287473E+02 0.25394742733E+02
 0.18292411682E+02 0.13238978275E+02 0.99320005658E+01 0.79331830922E+01 0.68752339542E+01
 0.64893200418E+01 0.65609671942E+01 0.68990687648E+01 0.73244502558E+01 0.76694078071E+01
 0.78017408396E+01 0.76694078071E+01 0.73244502558E+01 0.68990687648E+01 0.65609671942E+01
 0.64893200418E+01 0.68752339542E+01 0.79331830922E+01 0.99320005658E+01 0.13238978275E+02
 0.18292411682E+02 0.25394742733E+02 0.34357287473E+02 0.44387002890E+02 0.54262811722E+02
 0.61722285665E+02 0.10376010950E+03 0.98585964589E+02 0.84725324886E+02 0.66452712504E+02
 0.48670330118E+02 0.34412177228E+02 0.23700882394E+02 0.16152744531E+02 0.11254542000E+02
 0.82419447093E+01 0.64893200418E+01 0.55664195631E+01 0.51684587007E+01 0.50806777452E+01
 0.51567843581E+01 0.52761324572E+01 0.53316079974E+01 0.52761324572E+01 0.51567843581E+01
 0.50806777452E+01 0.51684587007E+01 0.55664195631E+01 0.64893200418E+01 0.82419447093E+01
 0.11254542000E+02 0.16152744531E+02 0.23700882394E+02 0.34412177228E+02 0.48670330118E+02
 0.66452712504E+02 0.84725324886E+02 0.98585964589E+02 0.16814706544E+03 0.15933555166E+03
 0.13547114485E+03 0.10344849623E+03 0.71902446817E+02 0.47328912808E+02 0.31014958334E+02
 0.20167996741E+02 0.13242262823E+02 0.90343664776E+01 0.65609671942E+01 0.51684587007E+01
 0.44179594165E+01 0.40386177990E+01 0.38942292486E+01 0.38860542297E+01 0.39022508658E+01
 0.38860542297E+01 0.38942292486E+01 0.40386177990E+01 0.44179594165E+01 0.51684587007E+01
 0.65609671942E+01 0.90343664776E+01 0.13242262823E+02 0.20167996741E+02 0.31014958334E+02
 0.47328912808E+02 0.71902446817E+02 0.10344849623E+03 0.13547114485E+03 0.15933555166E+03
 0.25358090291E+03 0.24032303406E+03 0.20403782015E+03 0.15441346726E+03 0.10438895211E+03
 0.64869278877E+02 0.39679955072E+02 0.24839694293E+02 0.15610035105E+02 0.10100107216E+02
 0.68990687648E+01 0.50806777452E+01 0.40386177990E+01 0.34262887467E+01 0.31111311040E+01
 0.30120617265E+01 0.30031206437E+01 0.30120617265E+01 0.31111311040E+01 0.34262887467E+01
 0.40386177990E+01 0.50806777452E+01 0.68990687648E+01 0.10100107216E+02 0.15610035105E+02
 0.24839694293E+02 0.39679955072E+02 0.64869278877E+02 0.10438895211E+03 0.15441346726E+03
 0.20403782015E+03 0.24032303406E+03 0.34356511402E+03 0.32594066721E+03 0.27731472871E+03
 0.20981910423E+03 0.14043743987E+03 0.84534193821E+02 0.48842854905E+02 0.29352965168E+02
 0.17905521251E+02 0.11173515629E+02 0.73244502558E+01 0.51567843581E+01 0.38942292486E+01
 0.31111311040E+01 0.26743717817E+01 0.25162857676E+01 0.24933112977E+01 0.25162857676E+01
 0.26743717817E+01 0.31111311040E+01 0.38942292486E+01 0.51567843581E+01 0.73244502558E+01
 0.11173515629E+02 0.17905521251E+02 0.29352965168E+02 0.48842854905E+02 0.84534193821E+02
 0.14043743987E+03 0.20981910423E+03 0.27731472871E+03 0.32594066721E+03 0.41314668697E+03
 0.39231101905E+03 0.33453571787E+03 0.25359620705E+03 0.16936092912E+03 0.10054314425E+03
 0.56220498377E+02 0.32674758820E+02 0.19589287324E+02 0.11970595061E+02 0.76694078071E+01
 0.52761324572E+01 0.38860542297E+01 0.30120617265E+01 0.25162857676E+01 0.23359802113E+01
 0.23103372055E+01 0.23359802113E+01 0.25162857676E+01 0.30120617265E+01 0.38860542297E+01
 0.52761324572E+01 0.76694078071E+01 0.11970595061E+02 0.19589287324E+02 0.32674758820E+02
 0.56220498377E+02 0.10054314425E+03 0.16936092912E+03 0.25359620705E+03 0.33453571787E+03
 0.39231101905E+03 0.43944001949E+03 0.41742226570E+03 0.35626469417E+03 0.27031828498E+03
 0.18049660753E+03 0.10675944782E+03 0.59086402039E+02 0.33910172718E+02 0.20209698674E+02
 0.12265317884E+02 0.78017408396E+01 0.53316079974E+01 0.39022508658E+01 0.30031206437E+01
 0.24933112977E+01 0.23103372055E+01 0.22857243939E+01 0.23103372055E+01 0.24933112977E+01
 0.30031206437E+01 0.39022508658E+01 0.53316079974E+01 0.78017408396E+01 0.12265317884E+02
 0.20209698674E+02 0.33910172718E+02 0.59086402039E+02 0.10675944782E+03 0.18049660753E+03
 0.27031828498E+03 0.35626469417E+03 0.41742226570E+03 0.41314668697E+03 0.39231101905E+03
 0.33453571787E+03 0.25359620705E+03 0.16936092912E+03 0.10054314425E+03 0.56220498377E+02
 0.32674758820E+02 0.19589287324E+02 0.11970595061E+02 0.76694078071E+01 0.52761324572E+01
 0.38860542297E+01 0.30120617265E+01 0.25162857676E+01 0.23359802113E+01 0.23103372055E+01
 0.23359802113E+01 0.25162857676E+01 0.30120617265E+01 0.38860542297E+01 0.52761324572E+01
 0.76694078071E+01 0.11970595061E+02 0.19589287324E+02 0.32674758820E+02 0.56220498377E+02
 0.10054314425E+03 0.16936092912E+03 0.25359620705E+03 0.33453571787E+03 0.39231101905E+03
 0.34356511402E+03 0.32594066721E+03 0.27731472871E+03 0.20981910423E+03 0.14043743987E+03
 0.84534193821E+02 0.48842854905E+02 0.29352965168E+02 0.17905521251E+02 0.11173515629E+02
 0.73244502558E+01 0.51567843581E+01 0.38942292486E+01 0.31111311040E+01 0.26743717817E+01
 0.25162857676E+01 0.24933112977E+01 0.25162857676E+01 0.26743717817E+01 0.31111311040E+01
 0.38942292486E+01 0.51567843581E+01 0.73244502558E+01 0.11173515629E+02 0.17905521251E+02