    5    5   99    2
  0.1141333E+02  0.3850000E-09  0.3850000E-09  0.3850000E-09  0.5000000E-15
  1.000000000000000E-004
  CAR 
 unknown system                          
     42     10     28
 
  0.8333333E-01  0.8333333E-01  0.8333333E-01  0.3703704E-01
    1      -54.181674    -49.951879   1.000000   1.000000
    2      -54.181674    -49.951856   1.000000   1.000000
    3      -54.181646    -49.951856   1.000000   1.000000
    4      -29.497100    -29.490524   1.000000   1.000000
    5      -15.203175    -15.074822   1.000000   1.000000
    6      -13.938668    -13.559055   1.000000   1.000000
    7      -13.938668    -13.559055   1.000000   1.000000
    8      -11.550141    -11.530026   1.000000   1.000000
    9      -11.550141    -11.530026   1.000000   1.000000
   10      -11.481648    -11.468448   1.000000   1.000000
   11       -3.933979     -1.272104   1.000000   1.000000
   12       -3.933979     -1.060524   1.000000   1.000000
   13       -3.925620     -1.060524   1.000000   1.000000
   14       -2.668056      1.403508   1.000000   1.000000
   15       -2.668056      1.403509   1.000000   1.000000
   16       -1.372468      1.838689   1.000000   1.000000
   17       -0.537294      1.859555   1.000000   1.000000
   18       -0.537294      2.182538   1.000000   1.000000
   19        1.461950      2.182539   1.000000   1.000000
   20        1.461950      4.207869   1.000000   0.000000
   21        1.683176      4.257644   1.000000   0.000000
   22        1.912041      4.257647   1.000000   0.000000
   23        2.373563      4.839799   1.000361   0.000000
   24        2.373563      4.839799   1.040819   0.000000
   25        8.887468      8.946270   0.000000   0.000000
   26        8.887511      8.946278   0.000000   0.000000
   27        9.881660     10.025866   0.000000   0.000000
   28       11.240785     11.538796   0.000000   0.000000
 
  0.2500000E+00  0.8333333E-01  0.8333333E-01  0.1111111E+00
    1      -54.182395    -49.953069   1.000000   1.000000
    2      -54.181532    -49.951755   1.000000   1.000000
    3      -54.181459    -49.951691   1.000000   1.000000
    4      -29.484387    -29.477907   1.000000   1.000000
    5      -15.179473    -15.045507   1.000000   1.000000
    6      -14.000385    -13.738767   1.000000   1.000000
    7      -13.908692    -13.524427   1.000000   1.000000
    8      -11.543482    -11.525093   1.000000   1.000000
    9      -11.495715    -11.474312   1.000000   1.000000
   10      -11.279094    -11.241901   1.000000   1.000000
   11       -4.085623     -1.708014   1.000000   1.000000
   12       -4.060576     -1.073904   1.000000   1.000000
   13       -3.968812     -1.032499   1.000000   1.000000
   14       -3.932366      0.698008   1.000000   1.000000
   15       -2.663450      0.759644   1.000000   1.000000
   16       -1.380014      1.347788   1.000000   1.000000
   17       -0.481852      1.720333   1.000000   1.000000
   18        0.327475      1.842432   1.000000   1.000000
   19        1.102611      1.976985   1.000000   1.000000
   20        1.472713      4.266240   1.000000   0.000000
   21        1.531857      4.750343   1.000000   0.000000
   22        1.712639      4.834054   1.000000   0.000000
   23        2.255549      4.925860   1.004107   0.000000
   24        2.574079      5.774794   0.889571   0.000000
   25        9.624212      9.705250   0.000000   0.000000
   26        9.705174      9.766740   0.000000   0.000000
   27       10.848188     10.978227   0.000000   0.000000
   28       11.480604     11.563284   0.000000   0.000000
 
  0.4166667E+00  0.8333333E-01  0.8333333E-01  0.1111111E+00
    1      -54.183136    -49.954263   1.000000   1.000000
    2      -54.181469    -49.951673   1.000000   1.000000
    3      -54.181424    -49.951639   1.000000   1.000000
    4      -29.471628    -29.465242   1.000000   1.000000
    5      -15.211417    -15.053095   1.000000   1.000000
    6      -13.959541    -13.828323   1.000000   1.000000
    7      -13.878169    -13.488604   1.000000   1.000000
    8      -11.537415    -11.520922   1.000000   1.000000
    9      -11.450873    -11.434690   1.000000   1.000000
   10      -11.101369    -11.055738   1.000000   1.000000
   11       -4.888292     -2.097828   1.000000   1.000000
   12       -4.210363     -1.056825   1.000000   1.000000
   13       -4.175160     -1.000651   1.000000   1.000000
   14       -3.935040     -0.017464   1.000000   1.000000
   15       -2.665080      0.339498   1.000000   1.000000
   16       -1.303614      1.172276   1.000000   1.000000
   17       -0.467615      1.446415   1.000000   1.000000
   18        0.303798      1.554109   1.000000   1.000000
   19        0.838234      1.816329   1.000000   1.000000
   20        1.409288      4.296232   1.000000   0.000000
   21        1.763139      4.813500   1.000000   0.000000
   22        1.818396      5.336717   1.000000   0.000000
   23        2.045821      5.357093   1.009070   0.000000
   24        2.649092      6.390372   0.674118   0.000000
   25       10.444372     10.529953   0.000000   0.000000
   26       10.697245     10.755463   0.000000   0.000000
   27       11.515368     11.559016   0.000000   0.000000
   28       12.279415     12.318279   0.000000   0.000000
 
  0.2500000E+00  0.2500000E+00  0.8333333E-01  0.1111111E+00
    1      -54.182485    -49.953072   1.000000   1.000000
    2      -54.182282    -49.952953   1.000000   1.000000
    3      -54.181525    -49.951707   1.000000   1.000000
    4      -29.472548    -29.466147   1.000000   1.000000
    5      -15.049681    -14.921450   1.000000   1.000000
    6      -14.087889    -13.856824   1.000000   1.000000
    7      -13.902150    -13.577879   1.000000   1.000000
    8      -11.527451    -11.508921   1.000000   1.000000
    9      -11.421897    -11.376290   1.000000   1.000000
   10      -11.242482    -11.220603   1.000000   1.000000
   11       -4.268121     -2.018671   1.000000   1.000000
   12       -4.207065     -1.216051   1.000000   1.000000
   13       -4.092538     -0.964783   1.000000   1.000000
   14       -4.073891     -0.203565   1.000000   1.000000
   15       -3.626104      0.617482   1.000000   1.000000
   16       -1.439753      0.823928   1.000000   1.000000
   17        0.052942      1.638019   1.000000   1.000000
   18        0.804213      1.716100   1.000000   1.000000
   19        0.917865      2.201976   1.000000   1.000000
   20        1.106798      4.782243   1.000000   0.000000
   21        1.407399      4.900032   1.000000   0.000000
   22        1.935913      5.026859   1.000000   0.000000
   23        2.200279      5.276219   1.025249   0.000000
   24        3.180206      6.422805   0.084828   0.000000
   25       10.077599     10.190287   0.000000   0.000000
   26       10.469345     10.538126   0.000000   0.000000
   27       11.169179     11.250303   0.000000   0.000000
   28       11.984012     12.097282   0.000000   0.000000
 
  0.4166667E+00  0.2500000E+00  0.8333333E-01  0.2222222E+00
    1      -54.182963    -49.954084   1.000000   1.000000
    2      -54.182190    -49.952824   1.000000   1.000000
    3      -54.181244    -49.951465   1.000000   1.000000
    4      -29.460634    -29.454311   1.000000   1.000000
    5      -14.958823    -14.808589   1.000000   1.000000
    6      -14.098029    -13.968648   1.000000   1.000000
    7      -13.898384    -13.585809   1.000000   1.000000
    8      -11.534114    -11.517529   1.000000   1.000000
    9      -11.350205    -11.326719   1.000000   1.000000
   10      -11.197045    -11.161782   1.000000   1.000000
   11       -4.928876     -2.348733   1.000000   1.000000
   12       -4.437223     -1.300054   1.000000   1.000000
   13       -4.212917     -0.891950   1.000000   1.000000
   14       -4.102061     -0.816292   1.000000   1.000000
   15       -3.816974      0.221527   1.000000   1.000000
   16       -1.317427      0.792798   1.000000   1.000000
   17        0.250586      1.369617   1.000000   1.000000
   18        0.440684      1.599198   1.000000   1.000000
   19        0.931364      2.306889   1.000000   1.000000
   20        1.145308      4.853307   1.000000   0.000000
   21        1.605860      5.293584   1.000000   0.000000
   22        1.975770      5.352178   1.000000   0.000000
   23        2.225127      5.407569   1.045125   0.000000
   24        3.597509      7.084811  -0.044224   0.000000
   25       10.789398     10.891235   0.000000   0.000000
   26       11.363714     11.430750   0.000000   0.000000
   27       11.670282     11.717296   0.000000   0.000000
   28       12.258679     12.206720   0.000000   0.000000
 
  0.4166667E+00  0.4166667E+00  0.8333333E-01  0.1111111E+00
    1      -54.183077    -49.954113   1.000000   1.000000
    2      -54.183062    -49.954112   1.000000   1.000000
    3      -54.181263    -49.951431   1.000000   1.000000
    4      -29.449598    -29.443342   1.000000   1.000000
    5      -14.603292    -14.443841   1.000000   1.000000
    6      -14.219434    -14.104261   1.000000   1.000000
    7      -14.036454    -13.810818   1.000000   1.000000
    8      -11.488810    -11.477099   1.000000   1.000000
    9      -11.303144    -11.273700   1.000000   1.000000
   10      -11.260775    -11.238408   1.000000   1.000000
   11       -5.109808     -2.691700   1.000000   1.000000
   12       -4.656042     -1.492223   1.000000   1.000000
   13       -4.561594     -1.414482   1.000000   1.000000
   14       -4.247667     -0.568087   1.000000   1.000000
   15       -4.241899      0.108523   1.000000   1.000000
   16       -1.177604      0.276942   1.000000   1.000000
   17        0.263897      1.451542   1.000000   1.000000
   18        0.872191      1.538436   1.000000   1.000000
   19        1.078163      2.775584   1.000000   1.000000
   20        1.105253      5.312440   1.000000   0.000000
   21        1.516882      5.352479   1.000000   0.000000
   22        1.711806      5.468514   1.000000   0.000000
   23        2.589376      5.555743   0.981589   0.000000
   24        4.365194      7.855435   0.000000   0.000000
   25       11.118464     11.160630   0.000000   0.000000
   26       11.389543     11.466616   0.000000   0.000000
   27       12.273572     12.391597   0.000000   0.000000
   28       12.358175     12.444224   0.000000   0.000000
 
  0.2500000E+00  0.2500000E+00  0.2500000E+00  0.3703704E-01
    1      -54.182289    -49.952896   1.000000   1.000000
    2      -54.182289    -49.952896   1.000000   1.000000
    3      -54.182163    -49.952824   1.000000   1.000000
    4      -29.461368    -29.455047   1.000000   1.000000
    5      -14.881774    -14.766480   1.000000   1.000000
    6      -13.992816    -13.750574   1.000000   1.000000
    7      -13.992816    -13.750574   1.000000   1.000000
    8      -11.544913    -11.508095   1.000000   1.000000
    9      -11.544913    -11.508095   1.000000   1.000000
   10      -11.195793    -11.178141   1.000000   1.000000
   11       -4.326453     -2.271294   1.000000   1.000000
   12       -4.229801     -1.183346   1.000000   1.000000
   13       -4.229801     -1.183346   1.000000   1.000000
   14       -4.190049     -0.283450   1.000000   1.000000
   15       -4.190049      0.029704   1.000000   1.000000
   16       -2.306730      0.029704   1.000000   1.000000
   17        0.603591      1.979653   1.000000   1.000000
   18        0.967045      1.979654   1.000000   1.000000
   19        0.967046      2.348739   1.000000   1.000015
   20        1.300299      5.040681   1.000000   0.000000
   21        1.300299      5.122746   1.000000   0.000000
   22        2.167713      5.122755   1.000000   0.000000
   23        3.114293      6.405279   0.513576   0.000000
   24        3.114293      6.405290   0.030429   0.000000
   25       10.594657     10.708459   0.000000   0.000000
   26       10.602794     10.714210   0.000000   0.000000
   27       11.004737     11.063335   0.000000   0.000000
   28       12.137315     12.235084   0.000000   0.000000
 
  0.4166667E+00  0.2500000E+00  0.2500000E+00  0.1111111E+00
    1      -54.183026    -49.954080   1.000000   1.000000
    2      -54.182120    -49.952753   1.000000   1.000000
    3      -54.182069    -49.952711   1.000000   1.000000
    4      -29.450138    -29.443909   1.000000   1.000000
    5      -14.717355    -14.583608   1.000000   1.000000
    6      -14.068265    -13.939548   1.000000   1.000000
    7      -13.886468    -13.629177   1.000000   1.000000
    8      -11.679227    -11.654818   1.000000   1.000000
    9      -11.432736    -11.399185   1.000000   1.000000
   10      -11.275693    -11.254661   1.000000   1.000000
   11       -4.953454     -2.582402   1.000000   1.000000
   12       -4.462831     -1.308092   1.000000   1.000000
   13       -4.319834     -1.142572   1.000000   1.000000
   14       -4.233721     -0.828190   1.000000   1.000000
   15       -4.210310     -0.324154   1.000000   1.000000
   16       -2.486168      0.064652   1.000000   1.000000
   17        0.490598      1.969279   1.000000   1.000000
   18        0.910671      2.107664   1.000000   1.000000
   19        1.006991      2.440723   1.000000   1.001735
   20        1.369458      5.146683   1.000000   0.000000
   21        1.944418      5.424523   1.000000   0.000000
   22        2.345738      5.461063   1.000000   0.000000
   23        3.002219      6.370335   0.442609   0.000000
   24        3.733708      7.246964  -0.015456   0.000000
   25       11.052898     11.147665   0.000000   0.000000
   26       11.153052     11.241117   0.000000   0.000000
   27       11.263989     11.368033   0.000000   0.000000
   28       11.839742     11.902385   0.000000   0.000000
 
  0.4166667E+00  0.4166667E+00  0.2500000E+00  0.1111111E+00
    1      -54.183054    -49.954048   1.000000   1.000000
    2      -54.183000    -49.954007   1.000000   1.000000
    3      -54.181957    -49.952589   1.000000   1.000000
    4      -29.439603    -29.433462   1.000000   1.000000
    5      -14.380128    -14.249971   1.000000   1.000000
    6      -14.070106    -13.949244   1.000000   1.000000
    7      -13.936721    -13.748699   1.000000   1.000000
    8      -11.702209    -11.679057   1.000000   1.000000
    9      -11.545225    -11.514224   1.000000   1.000000
   10      -11.426295    -11.402870   1.000000   1.000000
   11       -5.107985     -2.936854   1.000000   1.000000
   12       -4.728173     -1.481705   1.000000   1.000000
   13       -4.551793     -1.134429   1.000000   1.000000
   14       -4.347174     -1.049871   1.000000   1.000000
   15       -4.342289     -0.328958   1.000000   1.000000
   16       -2.828207     -0.324506   1.000000   1.000000
   17        0.574583      2.200379   1.000000   1.000000
   18        0.986620      2.256311   1.000000   1.000000
   19        1.010647      2.813469   1.000000   1.019872
   20        1.974645      5.485023   1.000000   0.000000
   21        2.092461      5.505138   1.000000   0.000000
   22        2.631344      5.627104   1.000000   0.000000
   23        3.167652      6.727285   0.094801   0.000000
   24        4.357908      7.847501   0.000000   0.000000
   25       10.765088     10.834288   0.000000   0.000000
   26       11.114789     11.213778   0.000000   0.000000
   27       11.171964     11.282205   0.000000   0.000000
   28       11.997850     12.061071   0.000000   0.000000
 
  0.4166667E+00  0.4166667E+00  0.4166667E+00  0.3703704E-01
    1      -54.183067    -49.954025   1.000000   1.000000
    2      -54.183067    -49.954025   1.000000   1.000000
    3      -54.182974    -49.953953   1.000000   1.000000
    4      -29.429570    -29.423551   1.000000   1.000000
    5      -14.079263    -13.969743   1.000000   1.000000
    6      -13.890457    -13.760871   1.000000   1.000000
    7      -13.890457    -13.760871   1.000000   1.000000
    8      -11.816268    -11.787337   1.000000   1.000000
    9      -11.816267    -11.787337   1.000000   1.000000
   10      -11.684142    -11.656401   1.000000   1.000000
   11       -5.106076     -3.315903   1.000000   1.000000
   12       -5.106076     -1.470709   1.000000   1.000000
   13       -4.476771     -1.470709   1.000000   1.000000
   14       -4.428917     -0.742224   1.000000   1.000000
   15       -4.428917     -0.584899   1.000000   1.000000
   16       -3.554572     -0.584899   1.000000   1.000000
   17        0.885927      2.761019   1.000000   1.000000
   18        1.013553      2.761019   1.000000   1.000000
   19        1.013554      2.888814   1.000000   0.773108
   20        2.566951      5.693988   1.000000   0.000000
   21        2.566951      5.710375   1.000000   0.000000
   22        2.702037      5.710375   1.000000   0.000000
   23        4.341168      7.832424   0.000000   0.000000
   24        4.341168      7.832426   0.000000   0.000000
   25       10.317032     10.407879   0.000000   0.000000
   26       10.401887     10.484751   0.000000   0.000000
   27       10.401926     10.484800   0.000000   0.000000
   28       12.798155     12.831512   0.000000   0.000000
