       N       E                     dE             d eps       ncg     rms          rms(c)
DAV:   1     0.325984935411E+03    0.32598E+03   -0.17132E+04  1200   0.118E+03
DAV:   2    -0.193685510137E+02   -0.34535E+03   -0.33594E+03  1128   0.399E+02
DAV:   3    -0.371625851389E+02   -0.17794E+02   -0.17576E+02  1528   0.956E+01
DAV:   4    -0.376941789782E+02   -0.53159E+00   -0.52885E+00  1736   0.122E+01
DAV:   5    -0.377027057631E+02   -0.85268E-02   -0.85029E-02  1456   0.132E+00    0.264E+01
RMM:   6    -0.424931774086E+02   -0.47905E+01   -0.12071E+02  1236   0.869E+01    0.400E+01
RMM:   7    -0.319884158351E+02    0.10505E+02   -0.30615E+01  1165   0.392E+01    0.158E+01
RMM:   8    -0.318293122908E+02    0.15910E+00   -0.58913E-01  1214   0.588E+00    0.123E+01
RMM:   9    -0.315090069885E+02    0.32031E+00   -0.31195E+00  1154   0.122E+01    0.319E+00
RMM:  10    -0.314536924003E+02    0.55315E-01   -0.10456E-01  1200   0.241E+00    0.181E+00
RMM:  11    -0.314032852507E+02    0.50407E-01   -0.19380E-01  1124   0.316E+00    0.521E-01
RMM:  12    -0.314162614417E+02   -0.12976E-01   -0.12580E-02  1061   0.883E-01    0.808E-01
RMM:  13    -0.314126256645E+02    0.36358E-02   -0.88415E-03   914   0.703E-01    0.277E-01
RMM:  14    -0.314123263017E+02    0.29936E-03   -0.18754E-03   699   0.274E-01
   1 F= -.31412326E+02 E0= -.31412326E+02  d E =-.314123E+02  mag=     3.9997
