<?xml version="1.0" encoding="ISO-8859-1"?>
<modeling>
 <generator>
  <i name="program" type="string">vasp </i>
  <i name="version" type="string">5.4.1  </i>
  <i name="subversion" type="string">24Jun15 (build Jan 06 2016 13:10:00) complex                          parallel </i>
  <i name="platform" type="string">IFC91_ompi </i>
  <i name="date" type="string">2016 02 25 </i>
  <i name="time" type="string">14:42:52 </i>
 </generator>
 <incar>
  <i type="string" name="PREC">normal</i>
  <i type="string" name="ALGO"> Fast</i>
  <i type="int" name="ISPIN">     2</i>
  <i type="int" name="NELM">   100</i>
  <i type="int" name="IBRION">     1</i>
  <i name="EDIFF">      0.00100000</i>
  <i name="EDIFFG">     -0.01000000</i>
  <i type="int" name="NSW">    99</i>
  <i type="int" name="ISIF">     0</i>
  <i name="ENCUT">    300.00000000</i>
  <i type="string" name="LREAL">Auto</i>
  <i type="int" name="ISMEAR">    -5</i>
  <i name="SIGMA">      0.05000000</i>
  <i type="int" name="LMAXMIX">     4</i>
  <i type="logical" name="LWAVE"> F  </i>
  <v type="int" name="KPOINT_BSE">    -1     0     0     0</v>
  <i type="int" name="NELM">   100</i>
  <i type="logical" name="LDAU"> T  </i>
  <v type="int" name="LDAUTYPE">     2</v>
  <v type="int" name="LDAUL">     0     2     0</v>
  <v name="LDAUU">      0.00000000      5.30000000      0.00000000</v>
  <v name="LDAUJ">      0.00000000      0.00000000      0.00000000</v>
  <i type="int" name="LDAUPRINT">     1</i>
 </incar>
 <kpoints>
  <generation param="Monkhorst-Pack">
   <v type="int" name="divisions">       6        6        6 </v>
   <v name="usershift">      0.00000000       0.00000000       0.00000000 </v>
   <v name="genvec1">      0.16666667       0.00000000       0.00000000 </v>
   <v name="genvec2">      0.00000000       0.16666667       0.00000000 </v>
   <v name="genvec3">      0.00000000       0.00000000       0.16666667 </v>
   <v name="shift">      0.50000000       0.50000000       0.50000000 </v>
  </generation>
  <varray name="kpointlist" >
   <v>       0.08333333       0.08333333       0.08333333 </v>
   <v>       0.25000000       0.08333333       0.08333333 </v>
   <v>       0.41666667       0.08333333       0.08333333 </v>
   <v>       0.25000000       0.25000000       0.08333333 </v>
   <v>       0.41666667       0.25000000       0.08333333 </v>
   <v>       0.41666667       0.41666667       0.08333333 </v>
   <v>       0.25000000       0.25000000       0.25000000 </v>
   <v>       0.41666667       0.25000000       0.25000000 </v>
   <v>       0.41666667       0.41666667       0.25000000 </v>
   <v>       0.41666667       0.41666667       0.41666667 </v>
  </varray>
  <varray name="weights" >
   <v>       0.03703704 </v>
   <v>       0.11111111 </v>
   <v>       0.11111111 </v>
   <v>       0.11111111 </v>
   <v>       0.22222222 </v>
   <v>       0.11111111 </v>
   <v>       0.03703704 </v>
   <v>       0.11111111 </v>
   <v>       0.11111111 </v>
   <v>       0.03703704 </v>
  </varray>
  <varray name="tetrahedronlist"  type="int" >
   <v type="int" >       24        1        2        2        4 </v>
   <v type="int" >       18        2        2        4        4 </v>
   <v type="int" >       12        2        4        4        7 </v>
   <v type="int" >       12        2        3        4        5 </v>
   <v type="int" >       24        2        4        4        5 </v>
   <v type="int" >       12        4        4        5        7 </v>
   <v type="int" >       24        3        4        5        5 </v>
   <v type="int" >       24        4        5        5        8 </v>
   <v type="int" >       24        4        5        7        8 </v>
   <v type="int" >       30        3        3        5        5 </v>
   <v type="int" >       36        3        5        5        5 </v>
   <v type="int" >       12        5        5        5        8 </v>
   <v type="int" >        6        5        5        8        8 </v>
   <v type="int" >       18        1        1        2        2 </v>
   <v type="int" >       24        1        2        2        2 </v>
   <v type="int" >       12        2        2        2        4 </v>
   <v type="int" >       12        4        5        6        7 </v>
   <v type="int" >       12        5        6        7        8 </v>
   <v type="int" >       12        6        7        8        9 </v>
   <v type="int" >       24        5        5        6        8 </v>
   <v type="int" >       12        5        6        6        8 </v>
   <v type="int" >       12        6        6        8        9 </v>
   <v type="int" >       12        5        6        8        8 </v>
   <v type="int" >       12        6        8        8        9 </v>
   <v type="int" >       12        6        8        9        9 </v>
   <v type="int" >       12        5        6        8        9 </v>
   <v type="int" >       12        5        7        8        8 </v>
   <v type="int" >       24        5        8        8        9 </v>
   <v type="int" >       12        2        3        4        7 </v>
   <v type="int" >       12        3        4        5        7 </v>
   <v type="int" >       12        3        5        7        8 </v>
   <v type="int" >       12        2        2        3        4 </v>
   <v type="int" >       12        2        3        3        4 </v>
   <v type="int" >       12        3        3        4        5 </v>
   <v type="int" >       12        2        3        4        4 </v>
   <v type="int" >       12        3        4        4        5 </v>
   <v type="int" >       12        6        6        6        9 </v>
   <v type="int" >       12        6        6        9        9 </v>
   <v type="int" >       12        6        9        9        9 </v>
   <v type="int" >       12        5        5        6        9 </v>
   <v type="int" >       12        5        6        6        9 </v>
   <v type="int" >       12        5        6        9        9 </v>
   <v type="int" >       12        5        5        8        9 </v>
   <v type="int" >       12        5        8        9        9 </v>
   <v type="int" >       12        3        3        5        8 </v>
   <v type="int" >       12        3        5        5        8 </v>
   <v type="int" >       12        3        5        8        8 </v>
   <v type="int" >       24        3        3        3        5 </v>
   <v type="int" >       12        4        5        6        9 </v>
   <v type="int" >       12        4        5        8        9 </v>
   <v type="int" >       12        4        7        8        9 </v>
   <v type="int" >       12        2        3        5        8 </v>
   <v type="int" >       12        2        4        5        8 </v>
   <v type="int" >       12        2        4        7        8 </v>
   <v type="int" >       12        2        3        3        5 </v>
   <v type="int" >       12        2        2        3        5 </v>
   <v type="int" >       12        2        2        4        5 </v>
   <v type="int" >       12        2        3        5        5 </v>
   <v type="int" >       12        2        4        5        5 </v>
   <v type="int" >       12        1        2        4        7 </v>
   <v type="int" >       12        1        1        2        4 </v>
   <v type="int" >       12        1        2        4        4 </v>
   <v type="int" >       12        1        1        1        2 </v>
   <v type="int" >       12        7        8        8        9 </v>
   <v type="int" >       18        8        8        9        9 </v>
   <v type="int" >       24        8        9        9       10 </v>
   <v type="int" >       12        8        9        9        9 </v>
   <v type="int" >       24        9        9        9       10 </v>
   <v type="int" >       18        9        9       10       10 </v>
   <v type="int" >        6        4        4        5        5 </v>
   <v type="int" >       12        4        5        5        5 </v>
   <v type="int" >       36        5        5        5        6 </v>
   <v type="int" >       30        5        5        6        6 </v>
   <v type="int" >       12        9       10       10       10 </v>
   <v type="int" >       12        8        8        9       10 </v>
   <v type="int" >       12        8        9       10       10 </v>
   <v type="int" >       24        5        6        6        6 </v>
   <v type="int" >       12        7        8        9       10 </v>
   <v type="int" >       12        4        5        5        6 </v>
   <v type="int" >       12        4        4        5        6 </v>
   <v type="int" >       12        4        5        6        6 </v>
   <v type="int" >       12        2        2        2        3 </v>
   <v type="int" >       12        2        2        3        3 </v>
   <v type="int" >       12        2        3        3        3 </v>
   <v type="int" >        6       10       10       10       10 </v>
   <v type="int" >       18        6        6        6        6 </v>
   <v type="int" >       18        3        3        3        3 </v>
   <v type="int" >        6        1        1        1        1 </v>
  </varray>
  <i name="volumeweight">      0.00077160 </i>
 </kpoints>
 <parameters>
  <separator name="general" >
   <i type="string" name="SYSTEM">unknown system</i>
   <i type="logical" name="LCOMPAT"> F  </i>
  </separator>
  <separator name="electronic" >
   <i type="string" name="PREC">normal</i>
   <i name="ENMAX">    300.00000000</i>
   <i name="ENAUG">    578.34200000</i>
   <i name="EDIFF">      0.00100000</i>
   <i type="int" name="IALGO">    68</i>
   <i type="int" name="IWAVPR">    11</i>
   <i type="int" name="NBANDS">    28</i>
   <i name="NELECT">     42.00000000</i>
   <i type="int" name="TURBO">     0</i>
   <i type="int" name="IRESTART">     0</i>
   <i type="int" name="NREBOOT">     0</i>
   <i type="int" name="NMIN">     0</i>
   <i name="EREF">      0.00000000</i>
   <separator name="electronic smearing" >
    <i type="int" name="ISMEAR">    -5</i>
    <i name="SIGMA">      0.05000000</i>
    <i name="KSPACING">      0.50000000</i>
    <i type="logical" name="KGAMMA"> T  </i>
   </separator>
   <separator name="electronic projectors" >
    <i type="logical" name="LREAL"> T  </i>
    <v name="ROPT">     -0.00050000     -0.00050000     -0.00050000</v>
    <i type="int" name="LMAXPAW">  -100</i>
    <i type="int" name="LMAXMIX">     4</i>
    <i type="logical" name="NLSPLINE"> F  </i>
   </separator>
   <separator name="electronic startup" >
    <i type="int" name="ISTART">     0</i>
    <i type="int" name="ICHARG">     2</i>
    <i type="int" name="INIWAV">     1</i>
   </separator>
   <separator name="electronic spin" >
    <i type="int" name="ISPIN">     2</i>
    <i type="logical" name="LNONCOLLINEAR"> F  </i>
    <v name="MAGMOM">      1.00000000      1.00000000      1.00000000      1.00000000      1.00000000</v>
    <i name="NUPDOWN">     -1.00000000</i>
    <i type="logical" name="LSORBIT"> F  </i>
    <v name="SAXIS">      0.00000000      0.00000000      1.00000000</v>
    <i type="logical" name="LSPIRAL"> F  </i>
    <v name="QSPIRAL">      0.00000000      0.00000000      0.00000000</v>
    <i type="logical" name="LZEROZ"> F  </i>
   </separator>
   <separator name="electronic exchange-correlation" >
    <i type="logical" name="LASPH"> F  </i>
    <i type="logical" name="LMETAGGA"> F  </i>
   </separator>
   <separator name="electronic convergence" >
    <i type="int" name="NELM">   100</i>
    <i type="int" name="NELMDL">    -5</i>
    <i type="int" name="NELMIN">     2</i>
    <i name="ENINI">    300.00000000</i>
    <separator name="electronic convergence detail" >
     <i type="logical" name="LDIAG"> T  </i>
     <i type="logical" name="LSUBROT"> F  </i>
     <i name="WEIMIN">      0.00100000</i>
     <i name="EBREAK">      0.00000893</i>
     <i name="DEPER">      0.30000000</i>
     <i type="int" name="NRMM">     4</i>
     <i name="TIME">      0.40000000</i>
    </separator>
   </separator>
   <separator name="electronic mixer" >
    <i name="AMIX">      0.40000000</i>
    <i name="BMIX">      1.00000000</i>
    <i name="AMIN">      0.10000000</i>
    <i name="AMIX_MAG">      1.60000000</i>
    <i name="BMIX_MAG">      1.00000000</i>
    <separator name="electronic mixer details" >
     <i type="int" name="IMIX">     4</i>
     <i type="logical" name="MIXFIRST"> F  </i>
     <i type="int" name="MAXMIX">   -45</i>
     <i name="WC">    100.00000000</i>
     <i type="int" name="INIMIX">     1</i>
     <i type="int" name="MIXPRE">     1</i>
     <i type="int" name="MREMOVE">     5</i>
    </separator>
   </separator>
   <separator name="electronic dipolcorrection" >
    <i type="logical" name="LDIPOL"> F  </i>
    <i type="logical" name="LMONO"> F  </i>
    <i type="int" name="IDIPOL">     0</i>
    <i name="EPSILON">      1.00000000</i>
    <v name="DIPOL">   -100.00000000   -100.00000000   -100.00000000</v>
    <i name="EFIELD">      0.00000000</i>
   </separator>
  </separator>
  <separator name="grids" >
   <i type="int" name="NGX">    16</i>
   <i type="int" name="NGY">    16</i>
   <i type="int" name="NGZ">    16</i>
   <i type="int" name="NGXF">    32</i>
   <i type="int" name="NGYF">    32</i>
   <i type="int" name="NGZF">    32</i>
   <i type="logical" name="ADDGRID"> F  </i>
  </separator>
  <separator name="ionic" >
   <i type="int" name="NSW">    99</i>
   <i type="int" name="IBRION">     1</i>
   <i type="int" name="ISIF">     0</i>
   <i name="PSTRESS">      0.00000000</i>
   <i name="EDIFFG">     -0.01000000</i>
   <i type="int" name="NFREE">     0</i>
   <i name="POTIM">      0.50000000</i>
   <i name="SMASS">     -3.00000000</i>
   <i name="SCALEE">      1.00000000</i>
  </separator>
  <separator name="ionic md" >
   <i name="TEBEG">      0.00010000</i>
   <i name="TEEND">      0.00010000</i>
   <i type="int" name="NBLOCK">     1</i>
   <i type="int" name="KBLOCK">    99</i>
   <i type="int" name="NPACO">   256</i>
   <i name="APACO">     16.00000000</i>
  </separator>
  <separator name="symmetry" >
   <i type="int" name="ISYM">     2</i>
   <i name="SYMPREC">      0.00001000</i>
  </separator>
  <separator name="dos" >
   <i type="logical" name="LORBIT"> F  </i>
   <v name="RWIGS">     -1.00000000     -1.00000000     -1.00000000</v>
   <i type="int" name="NEDOS">   301</i>
   <i name="EMIN">     10.00000000</i>
   <i name="EMAX">    -10.00000000</i>
   <i name="EFERMI">      0.00000000</i>
  </separator>
  <separator name="writing" >
   <i type="int" name="NWRITE">     2</i>
   <i type="logical" name="LWAVE"> F  </i>
   <i type="logical" name="LCHARG"> T  </i>
   <i type="logical" name="LPARD"> F  </i>
   <i type="logical" name="LVTOT"> F  </i>
   <i type="logical" name="LVHAR"> F  </i>
   <i type="logical" name="LELF"> F  </i>
   <i type="logical" name="LOPTICS"> F  </i>
   <v name="STM">      0.00000000      0.00000000      0.00000000      0.00000000      0.00000000      0.00000000      0.00000000</v>
  </separator>
  <separator name="performance" >
   <i type="int" name="NPAR">     2</i>
   <i type="int" name="NSIM">     4</i>
   <i type="int" name="NBLK">    -1</i>
   <i type="logical" name="LPLANE"> T  </i>
   <i type="logical" name="LSCALAPACK"> T  </i>
   <i type="logical" name="LSCAAWARE"> F  </i>
   <i type="logical" name="LSCALU"> F  </i>
   <i type="logical" name="LASYNC"> F  </i>
   <i type="logical" name="LORBITALREAL"> F  </i>
  </separator>
  <separator name="miscellaneous" >
   <i type="int" name="IDIOT">     3</i>
   <i type="logical" name="LMUSIC"> F  </i>
   <v name="POMASS">     87.62000000     55.84700000     16.00000000</v>
   <v name="DARWINR">      0.00000000      0.00000000      0.00000000</v>
   <v name="DARWINV">      1.00000000      1.00000000      1.00000000</v>
   <i type="logical" name="LCORR"> T  </i>
  </separator>
  <i type="logical" name="GGA_COMPAT"> T  </i>
  <i type="logical" name="LBERRY"> F  </i>
  <i type="int" name="ICORELEVEL">     0</i>
  <i type="logical" name="LDAU"> T  </i>
  <v type="int" name="LDAUTYPE">     2</v>
  <v type="int" name="LDAUL">     0</v>
  <v name="LDAUU">      0.00000000</v>
  <v name="LDAUJ">      0.00000000</v>
  <i type="int" name="LDAUPRINT">     1</i>
  <i type="int" name="I_CONSTRAINED_M">     0</i>
  <separator name="electronic exchange-correlation" >
   <i type="string" name="GGA">--</i>
   <i type="int" name="VOSKOWN">     0</i>
   <i type="logical" name="LHFCALC"> F  </i>
   <i type="string" name="PRECFOCK"></i>
   <i type="logical" name="LSYMGRAD"> F  </i>
   <i type="logical" name="LHFONE"> F  </i>
   <i type="logical" name="LRHFCALC"> F  </i>
   <i type="logical" name="LTHOMAS"> F  </i>
   <i type="logical" name="LMODELHF"> F  </i>
   <i name="ENCUT4O">     -1.00000000</i>
   <i type="int" name="EXXOEP">     0</i>
   <i type="int" name="FOURORBIT">     0</i>
   <i name="AEXX">      0.00000000</i>
   <i name="HFALPHA">      0.00000000</i>
   <i name="MCALPHA">      0.00000000</i>
   <i name="ALDAX">      1.00000000</i>
   <i name="AGGAX">      1.00000000</i>
   <i name="ALDAC">      1.00000000</i>
   <i name="AGGAC">      1.00000000</i>
   <i type="int" name="NKREDX">     1</i>
   <i type="int" name="NKREDY">     1</i>
   <i type="int" name="NKREDZ">     1</i>
   <i type="logical" name="SHIFTRED"> F  </i>
   <i type="logical" name="ODDONLY"> F  </i>
   <i type="logical" name="EVENONLY"> F  </i>
   <i type="int" name="LMAXFOCK">     0</i>
   <i type="int" name="NMAXFOCKAE">     0</i>
   <i type="logical" name="LFOCKAEDFT"> F  </i>
   <i name="HFSCREEN">      0.00000000</i>
   <i name="HFSCREENC">      0.00000000</i>
   <i type="int" name="NBANDSGWLOW">     0</i>
  </separator>
  <separator name="vdW DFT" >
   <i type="logical" name="LUSE_VDW"> F  </i>
   <i name="Zab_VDW">     -0.84910000</i>
   <i name="PARAM1">      0.12340000</i>
   <i name="PARAM2">      1.00000000</i>
   <i name="PARAM3">      0.00000000</i>
  </separator>
  <separator name="model GW" >
   <i type="int" name="MODEL_GW">     0</i>
   <i name="MODEL_EPS0">      6.84799500</i>
   <i name="MODEL_ALPHA">      1.00000000</i>
  </separator>
  <separator name="linear response parameters" >
   <i type="logical" name="LEPSILON"> F  </i>
   <i type="logical" name="LRPA"> F  </i>
   <i type="logical" name="LNABLA"> F  </i>
   <i type="logical" name="LVEL"> F  </i>
   <i type="int" name="KINTER">     0</i>
   <i name="CSHIFT">      0.10000000</i>
   <i name="OMEGAMAX">     -1.00000000</i>
   <i name="DEG_THRESHOLD">      0.00200000</i>
  </separator>
  <separator name="orbital magnetization" >
   <i type="logical" name="NUCIND"> F  </i>
   <v name="MAGPOS">      0.00000000      0.00000000      0.00000000</v>
   <i type="logical" name="LNICSALL"> T  </i>
   <i type="logical" name="ORBITALMAG"> F  </i>
   <i type="logical" name="LMAGBLOCH"> F  </i>
   <i type="logical" name="LCHIMAG"> F  </i>
   <i type="logical" name="LGAUGE"> T  </i>
   <i type="int" name="MAGATOM">     0</i>
   <v name="MAGDIPOL">      0.00000000      0.00000000      0.00000000</v>
   <v name="AVECCONST">      0.00000000      0.00000000      0.00000000</v>
  </separator>
  <separator name="response functions" >
   <i type="logical" name="LADDER"> F  </i>
   <i type="logical" name="LFXC"> F  </i>
   <i type="logical" name="LHARTREE"> T  </i>
   <i type="int" name="IBSE">     0</i>
   <v type="int" name="KPOINT">    -1     0     0     0</v>
   <i type="logical" name="LTCTE"> F  </i>
   <i type="logical" name="LTETE"> F  </i>
   <i type="logical" name="LTRIPLET"> F  </i>
   <i type="logical" name="LFXCEPS"> F  </i>
   <i type="logical" name="LFXHEG"> F  </i>
   <i type="int" name="NATURALO">     0</i>
   <i type="logical" name="L2ORDER"> F  </i>
   <i type="logical" name="LUSEW"> F  </i>
   <i name="ENCUTGW">     -2.00000000</i>
   <i name="ENCUTGWSOFT">     -2.00000000</i>
   <i name="ENCUTLF">     -1.00000000</i>
   <i type="int" name="LMAXMP2">    -1</i>
   <i name="SCISSOR">      0.00000000</i>
   <i type="int" name="NOMEGA">     0</i>
   <i type="int" name="NOMEGAR">     0</i>
   <i type="int" name="NBANDSGW">    -1</i>
   <i type="int" name="NBANDSO">    -1</i>
   <i type="int" name="NBANDSV">    -1</i>
   <i type="int" name="NELM">   100</i>
   <i type="int" name="NELMHF">     1</i>
   <i type="int" name="DIM">     3</i>
   <i type="int" name="ANTIRES">     0</i>
   <i name="OMEGAMAX">    -30.00000000</i>
   <i name="OMEGAMIN">    -30.00000000</i>
   <i name="OMEGATL">   -200.00000000</i>
   <i type="int" name="OMEGAGRID">     0</i>
   <i name="CSHIFT">     -0.10000000</i>
   <i type="logical" name="SELFENERGY"> F  </i>
   <i type="logical" name="LSPECTRAL"> F  </i>
   <i type="logical" name="LSPECTRALGW"> F  </i>
   <i type="logical" name="LSINGLES"> F  </i>
   <i type="logical" name="LFERMIGW"> F  </i>
   <i type="logical" name="ODDONLYGW"> F  </i>
   <i type="logical" name="EVENONLYGW"> F  </i>
   <i type="int" name="NKREDLFX">     1</i>
   <i type="int" name="NKREDLFY">     1</i>
   <i type="int" name="NKREDLFZ">     1</i>
   <i type="int" name="MAXMEM">  1800</i>
   <i type="int" name="TELESCOPE">     0</i>
   <i type="int" name="TAUPAR">     1</i>
   <i type="int" name="OMEGAPAR">    -1</i>
   <i name="LAMBDA">      1.00000000</i>
  </separator>
  <separator name="External order field" >
   <i name="OFIELD_KAPPA">      0.00000000</i>
   <v name="OFIELD_K">      0.00000000      0.00000000      0.00000000</v>
   <i name="OFIELD_Q6_NEAR">      0.00000000</i>
   <i name="OFIELD_Q6_FAR">      0.00000000</i>
   <i name="OFIELD_A">      0.00000000</i>
  </separator>
  <separator name="solvation model" >
   <i type="logical" name="LSOL"> F  </i>
  </separator>
 </parameters>
 <atominfo>
  <atoms>       5 </atoms>
  <types>       3 </types>
  <array name="atoms" >
   <dimension dim="1">ion</dimension>
   <field type="string">element</field>
   <field type="int">atomtype</field>
   <set>
    <rc><c>Sr</c><c>   1</c></rc>
    <rc><c>Fe</c><c>   2</c></rc>
    <rc><c>O </c><c>   3</c></rc>
    <rc><c>O </c><c>   3</c></rc>
    <rc><c>O </c><c>   3</c></rc>
   </set>
  </array>
  <array name="atomtypes" >
   <dimension dim="1">type</dimension>
   <field type="int">atomspertype</field>
   <field type="string">element</field>
   <field>mass</field>
   <field>valence</field>
   <field type="string">pseudopotential</field>
   <set>
    <rc><c>   1</c><c>Sr</c><c>     87.62000000</c><c>     10.00000000</c><c>  PAW Sr                                </c></rc>
    <rc><c>   1</c><c>Fe</c><c>     55.84700000</c><c>     14.00000000</c><c>  PAW Fe                                </c></rc>
    <rc><c>   3</c><c>O </c><c>     16.00000000</c><c>      6.00000000</c><c>  PAW O_s                               </c></rc>
   </set>
  </array>
 </atominfo>
 <structure name="initialpos" >
  <crystal>
   <varray name="basis" >
    <v>       3.85000000       0.00000000       0.00000000 </v>
    <v>       0.00000000       3.85000000       0.00000000 </v>
    <v>       0.00000000       0.00000000       3.85000000 </v>
   </varray>
   <i name="volume">     57.06662500 </i>
   <varray name="rec_basis" >
    <v>       0.25974026       0.00000000       0.00000000 </v>
    <v>       0.00000000       0.25974026       0.00000000 </v>
    <v>       0.00000000       0.00000000       0.25974026 </v>
   </varray>
  </crystal>
  <varray name="positions" >
   <v>       0.50000000       0.50000000       0.50000000 </v>
   <v>       0.00000000       0.00000000       0.00000000 </v>
   <v>       0.50000000       0.00000000       0.00000000 </v>
   <v>       0.00000000       0.50000000       0.00000000 </v>
   <v>       0.00000000       0.00000000       0.50000000 </v>
  </varray>
 </structure>
 <calculation>
  <scstep>
   <time name="dav">    0.35    0.35</time>
   <time name="total">    0.42    0.42</time>
   <energy>
    <i name="alphaZ">    301.19389356 </i>
    <i name="ewald">  -3281.45451222 </i>
    <i name="hartreedc">  -1271.58210351 </i>
    <i name="XCdc">    190.81746951 </i>
    <i name="pawpsdc">   3241.81915236 </i>
    <i name="pawaedc">  -3317.81696278 </i>
    <i name="eentropy">      0.00000000 </i>
    <i name="bandstr">   -138.94038072 </i>
    <i name="atom">   4601.94837920 </i>
    <i name="e_fr_energy">    325.98493541 </i>
    <i name="e_wo_entrp">    325.98493541 </i>
    <i name="e_0_energy">    325.98493541 </i>
   </energy>
  </scstep>
  <scstep>
   <time name="dav">    0.33    0.33</time>
   <time name="total">    0.34    0.35</time>
   <energy>
    <i name="e_fr_energy">    -19.36855101 </i>
    <i name="e_wo_entrp">    -19.36855101 </i>
    <i name="e_0_energy">    -19.36855101 </i>
   </energy>
  </scstep>
  <scstep>
   <time name="dav">    0.43    0.43</time>
   <time name="total">    0.45    0.45</time>
   <energy>
    <i name="e_fr_energy">    -37.16258514 </i>
    <i name="e_wo_entrp">    -37.16258514 </i>
    <i name="e_0_energy">    -37.16258514 </i>
   </energy>
  </scstep>
  <scstep>
   <time name="dav">    0.48    0.48</time>
   <time name="total">    0.50    0.50</time>
   <energy>
    <i name="e_fr_energy">    -37.69417898 </i>
    <i name="e_wo_entrp">    -37.69417898 </i>
    <i name="e_0_energy">    -37.69417898 </i>
   </energy>
  </scstep>
  <scstep>
   <time name="dav">    0.41    0.41</time>
   <time name="total">    0.44    0.44</time>
   <energy>
    <i name="e_fr_energy">    -37.70270576 </i>
    <i name="e_wo_entrp">    -37.70270576 </i>
    <i name="e_0_energy">    -37.70270576 </i>
   </energy>
  </scstep>
  <scstep>
   <time name="diag">    0.07    0.07</time>
   <time name="diis">    0.15    0.15</time>
   <time name="orth">    0.01    0.01</time>
   <time name="total">    0.31    0.31</time>
   <energy>
    <i name="e_fr_energy">    -42.49317741 </i>
    <i name="e_wo_entrp">    -42.49317741 </i>
    <i name="e_0_energy">    -42.49317741 </i>
   </energy>
  </scstep>
  <scstep>
   <time name="diag">    0.07    0.07</time>
   <time name="diis">    0.14    0.14</time>
   <time name="orth">    0.01    0.01</time>
   <time name="total">    0.30    0.31</time>
   <energy>
    <i name="e_fr_energy">    -31.98841584 </i>
    <i name="e_wo_entrp">    -31.98841584 </i>
    <i name="e_0_energy">    -31.98841584 </i>
   </energy>
  </scstep>
  <scstep>
   <time name="diag">    0.07    0.07</time>
   <time name="diis">    0.14    0.14</time>
   <time name="orth">    0.01    0.01</time>
   <time name="total">    0.30    0.31</time>
   <energy>
    <i name="e_fr_energy">    -31.82931229 </i>
    <i name="e_wo_entrp">    -31.82931229 </i>
    <i name="e_0_energy">    -31.82931229 </i>
   </energy>
  </scstep>
  <scstep>
   <time name="diag">    0.07    0.07</time>
   <time name="diis">    0.14    0.14</time>
   <time name="orth">    0.01    0.01</time>
   <time name="total">    0.30    0.30</time>
   <energy>
    <i name="e_fr_energy">    -31.50900699 </i>
    <i name="e_wo_entrp">    -31.50900699 </i>
    <i name="e_0_energy">    -31.50900699 </i>
   </energy>
  </scstep>
  <scstep>
   <time name="diag">    0.07    0.07</time>
   <time name="diis">    0.14    0.14</time>
   <time name="orth">    0.01    0.01</time>
   <time name="total">    0.30    0.30</time>
   <energy>
    <i name="e_fr_energy">    -31.45369240 </i>
    <i name="e_wo_entrp">    -31.45369240 </i>
    <i name="e_0_energy">    -31.45369240 </i>
   </energy>
  </scstep>
  <scstep>
   <time name="diag">    0.07    0.07</time>
   <time name="diis">    0.13    0.13</time>
   <time name="orth">    0.01    0.01</time>
   <time name="total">    0.29    0.30</time>
   <energy>
    <i name="e_fr_energy">    -31.40328525 </i>
    <i name="e_wo_entrp">    -31.40328525 </i>
    <i name="e_0_energy">    -31.40328525 </i>
   </energy>
  </scstep>
  <scstep>
   <time name="diag">    0.07    0.07</time>
   <time name="diis">    0.13    0.13</time>
   <time name="orth">    0.01    0.01</time>
   <time name="total">    0.29    0.29</time>
   <energy>
    <i name="e_fr_energy">    -31.41626144 </i>
    <i name="e_wo_entrp">    -31.41626144 </i>
    <i name="e_0_energy">    -31.41626144 </i>
   </energy>
  </scstep>
  <scstep>
   <time name="diag">    0.07    0.07</time>
   <time name="diis">    0.11    0.11</time>
   <time name="orth">    0.01    0.01</time>
   <time name="total">    0.27    0.27</time>
   <energy>
    <i name="e_fr_energy">    -31.41262566 </i>
    <i name="e_wo_entrp">    -31.41262566 </i>
    <i name="e_0_energy">    -31.41262566 </i>
   </energy>
  </scstep>
  <scstep>
   <time name="diag">    0.07    0.07</time>
   <time name="diis">    0.09    0.09</time>
   <time name="orth">    0.01    0.01</time>
   <time name="total">    0.23    0.24</time>
   <energy>
    <i name="alphaZ">    301.19389356 </i>
    <i name="ewald">  -3281.45451222 </i>
    <i name="hartreedc">  -1220.52051900 </i>
    <i name="XCdc">    191.95367810 </i>
    <i name="pawpsdc">   3484.34108327 </i>
    <i name="pawaedc">  -3571.93467422 </i>
    <i name="eentropy">      0.00000000 </i>
    <i name="bandstr">   -536.93965499 </i>
    <i name="atom">   4601.94837920 </i>
    <i name="e_fr_energy">    -31.41232630 </i>
    <i name="e_wo_entrp">    -31.41232630 </i>
    <i name="e_0_energy">    -31.41232630 </i>
   </energy>
  </scstep>
  <structure>
   <crystal>
    <varray name="basis" >
     <v>       3.85000000       0.00000000       0.00000000 </v>
     <v>       0.00000000       3.85000000       0.00000000 </v>
     <v>       0.00000000       0.00000000       3.85000000 </v>
    </varray>
    <i name="volume">     57.06662500 </i>
    <varray name="rec_basis" >
     <v>       0.25974026       0.00000000       0.00000000 </v>
     <v>       0.00000000       0.25974026       0.00000000 </v>
     <v>       0.00000000       0.00000000       0.25974026 </v>
    </varray>
   </crystal>
   <varray name="positions" >
    <v>       0.50000000       0.50000000       0.50000000 </v>
    <v>       0.00000000       0.00000000       0.00000000 </v>
    <v>       0.50000000       0.00000000       0.00000000 </v>
    <v>       0.00000000       0.50000000       0.00000000 </v>
    <v>       0.00000000       0.00000000       0.50000000 </v>
   </varray>
  </structure>
  <varray name="forces" >
   <v>       0.00000000       0.00000000       0.00000000 </v>
   <v>       0.00000000       0.00000000       0.00000000 </v>
   <v>       0.00000000       0.00000000       0.00000000 </v>
   <v>       0.00000000       0.00000000       0.00000000 </v>
   <v>       0.00000000       0.00000000       0.00000000 </v>
  </varray>
  <energy>
   <i name="e_fr_energy">    -31.41232630 </i>
   <i name="e_wo_entrp">    -31.41232630 </i>
   <i name="e_0_energy">      0.00000000 </i>
  </energy>
  <time name="totalsc">    5.03    5.07</time>
  <eigenvalues>
   <array>
    <dimension dim="1">band</dimension>
    <dimension dim="2">kpoint</dimension>
    <dimension dim="3">spin</dimension>
    <field>eigene</field>
    <field>occ</field>
    <set>
     <set comment="spin 1">
      <set comment="kpoint 1">
       <r>  -54.1817    1.0000 </r>
       <r>  -54.1817    1.0000 </r>
       <r>  -54.1816    1.0000 </r>
       <r>  -29.4971    1.0000 </r>
       <r>  -15.2032    1.0000 </r>
       <r>  -13.9387    1.0000 </r>
       <r>  -13.9387    1.0000 </r>
       <r>  -11.5501    1.0000 </r>
       <r>  -11.5501    1.0000 </r>
       <r>  -11.4816    1.0000 </r>
       <r>   -3.9340    1.0000 </r>
       <r>   -3.9340    1.0000 </r>
       <r>   -3.9256    1.0000 </r>
       <r>   -2.6681    1.0000 </r>
       <r>   -2.6681    1.0000 </r>
       <r>   -1.3725    1.0000 </r>
       <r>   -0.5373    1.0000 </r>
       <r>   -0.5373    1.0000 </r>
       <r>    1.4619    1.0000 </r>
       <r>    1.4619    1.0000 </r>
       <r>    1.6832    1.0000 </r>
       <r>    1.9120    1.0000 </r>
       <r>    2.3736    1.0004 </r>
       <r>    2.3736    1.0408 </r>
       <r>    8.8875    0.0000 </r>
       <r>    8.8875    0.0000 </r>
       <r>    9.8817    0.0000 </r>
       <r>   11.2408    0.0000 </r>
      </set>
      <set comment="kpoint 2">
       <r>  -54.1824    1.0000 </r>
       <r>  -54.1815    1.0000 </r>
       <r>  -54.1815    1.0000 </r>
       <r>  -29.4844    1.0000 </r>
       <r>  -15.1795    1.0000 </r>
       <r>  -14.0004    1.0000 </r>
       <r>  -13.9087    1.0000 </r>
       <r>  -11.5435    1.0000 </r>
       <r>  -11.4957    1.0000 </r>
       <r>  -11.2791    1.0000 </r>
       <r>   -4.0856    1.0000 </r>
       <r>   -4.0606    1.0000 </r>
       <r>   -3.9688    1.0000 </r>
       <r>   -3.9324    1.0000 </r>
       <r>   -2.6635    1.0000 </r>
       <r>   -1.3800    1.0000 </r>
       <r>   -0.4819    1.0000 </r>
       <r>    0.3275    1.0000 </r>
       <r>    1.1026    1.0000 </r>
       <r>    1.4727    1.0000 </r>
       <r>    1.5319    1.0000 </r>
       <r>    1.7126    1.0000 </r>
       <r>    2.2555    1.0041 </r>
       <r>    2.5741    0.8896 </r>
       <r>    9.6242    0.0000 </r>
       <r>    9.7052    0.0000 </r>
       <r>   10.8482    0.0000 </r>
       <r>   11.4806    0.0000 </r>
      </set>
      <set comment="kpoint 3">
       <r>  -54.1831    1.0000 </r>
       <r>  -54.1815    1.0000 </r>
       <r>  -54.1814    1.0000 </r>
       <r>  -29.4716    1.0000 </r>
       <r>  -15.2114    1.0000 </r>
       <r>  -13.9595    1.0000 </r>
       <r>  -13.8782    1.0000 </r>
       <r>  -11.5374    1.0000 </r>
       <r>  -11.4509    1.0000 </r>
       <r>  -11.1014    1.0000 </r>
       <r>   -4.8883    1.0000 </r>
       <r>   -4.2104    1.0000 </r>
       <r>   -4.1752    1.0000 </r>
       <r>   -3.9350    1.0000 </r>
       <r>   -2.6651    1.0000 </r>
       <r>   -1.3036    1.0000 </r>
       <r>   -0.4676    1.0000 </r>
       <r>    0.3038    1.0000 </r>
       <r>    0.8382    1.0000 </r>
       <r>    1.4093    1.0000 </r>
       <r>    1.7631    1.0000 </r>
       <r>    1.8184    1.0000 </r>
       <r>    2.0458    1.0091 </r>
       <r>    2.6491    0.6741 </r>
       <r>   10.4444    0.0000 </r>
       <r>   10.6972    0.0000 </r>
       <r>   11.5154    0.0000 </r>
       <r>   12.2794    0.0000 </r>
      </set>
      <set comment="kpoint 4">
       <r>  -54.1825    1.0000 </r>
       <r>  -54.1823    1.0000 </r>
       <r>  -54.1815    1.0000 </r>
       <r>  -29.4725    1.0000 </r>
       <r>  -15.0497    1.0000 </r>
       <r>  -14.0879    1.0000 </r>
       <r>  -13.9021    1.0000 </r>
       <r>  -11.5275    1.0000 </r>
       <r>  -11.4219    1.0000 </r>
       <r>  -11.2425    1.0000 </r>
       <r>   -4.2681    1.0000 </r>
       <r>   -4.2071    1.0000 </r>
       <r>   -4.0925    1.0000 </r>
       <r>   -4.0739    1.0000 </r>
       <r>   -3.6261    1.0000 </r>
       <r>   -1.4398    1.0000 </r>
       <r>    0.0529    1.0000 </r>
       <r>    0.8042    1.0000 </r>
       <r>    0.9179    1.0000 </r>
       <r>    1.1068    1.0000 </r>
       <r>    1.4074    1.0000 </r>
       <r>    1.9359    1.0000 </r>
       <r>    2.2003    1.0252 </r>
       <r>    3.1802    0.0848 </r>
       <r>   10.0776    0.0000 </r>
       <r>   10.4693    0.0000 </r>
       <r>   11.1692    0.0000 </r>
       <r>   11.9840    0.0000 </r>
      </set>
      <set comment="kpoint 5">
       <r>  -54.1830    1.0000 </r>
       <r>  -54.1822    1.0000 </r>
       <r>  -54.1812    1.0000 </r>
       <r>  -29.4606    1.0000 </r>
       <r>  -14.9588    1.0000 </r>
       <r>  -14.0980    1.0000 </r>
       <r>  -13.8984    1.0000 </r>
       <r>  -11.5341    1.0000 </r>
       <r>  -11.3502    1.0000 </r>
       <r>  -11.1970    1.0000 </r>
       <r>   -4.9289    1.0000 </r>
       <r>   -4.4372    1.0000 </r>
       <r>   -4.2129    1.0000 </r>
       <r>   -4.1021    1.0000 </r>
       <r>   -3.8170    1.0000 </r>
       <r>   -1.3174    1.0000 </r>
       <r>    0.2506    1.0000 </r>
       <r>    0.4407    1.0000 </r>
       <r>    0.9314    1.0000 </r>
       <r>    1.1453    1.0000 </r>
       <r>    1.6059    1.0000 </r>
       <r>    1.9758    1.0000 </r>
       <r>    2.2251    1.0451 </r>
       <r>    3.5975   -0.0442 </r>
       <r>   10.7894    0.0000 </r>
       <r>   11.3637    0.0000 </r>
       <r>   11.6703    0.0000 </r>
       <r>   12.2587    0.0000 </r>
      </set>
      <set comment="kpoint 6">
       <r>  -54.1831    1.0000 </r>
       <r>  -54.1831    1.0000 </r>
       <r>  -54.1813    1.0000 </r>
       <r>  -29.4496    1.0000 </r>
       <r>  -14.6033    1.0000 </r>
       <r>  -14.2194    1.0000 </r>
       <r>  -14.0365    1.0000 </r>
       <r>  -11.4888    1.0000 </r>
       <r>  -11.3031    1.0000 </r>
       <r>  -11.2608    1.0000 </r>
       <r>   -5.1098    1.0000 </r>
       <r>   -4.6560    1.0000 </r>
       <r>   -4.5616    1.0000 </r>
       <r>   -4.2477    1.0000 </r>
       <r>   -4.2419    1.0000 </r>
       <r>   -1.1776    1.0000 </r>
       <r>    0.2639    1.0000 </r>
       <r>    0.8722    1.0000 </r>
       <r>    1.0782    1.0000 </r>
       <r>    1.1053    1.0000 </r>
       <r>    1.5169    1.0000 </r>
       <r>    1.7118    1.0000 </r>
       <r>    2.5894    0.9816 </r>
       <r>    4.3652    0.0000 </r>
       <r>   11.1185    0.0000 </r>
       <r>   11.3895    0.0000 </r>
       <r>   12.2736    0.0000 </r>
       <r>   12.3582    0.0000 </r>
      </set>
      <set comment="kpoint 7">
       <r>  -54.1823    1.0000 </r>
       <r>  -54.1823    1.0000 </r>
       <r>  -54.1822    1.0000 </r>
       <r>  -29.4614    1.0000 </r>
       <r>  -14.8818    1.0000 </r>
       <r>  -13.9928    1.0000 </r>
       <r>  -13.9928    1.0000 </r>
       <r>  -11.5449    1.0000 </r>
       <r>  -11.5449    1.0000 </r>
       <r>  -11.1958    1.0000 </r>
       <r>   -4.3265    1.0000 </r>
       <r>   -4.2298    1.0000 </r>
       <r>   -4.2298    1.0000 </r>
       <r>   -4.1900    1.0000 </r>
       <r>   -4.1900    1.0000 </r>
       <r>   -2.3067    1.0000 </r>
       <r>    0.6036    1.0000 </r>
       <r>    0.9670    1.0000 </r>
       <r>    0.9670    1.0000 </r>
       <r>    1.3003    1.0000 </r>
       <r>    1.3003    1.0000 </r>
       <r>    2.1677    1.0000 </r>
       <r>    3.1143    0.5136 </r>
       <r>    3.1143    0.0304 </r>
       <r>   10.5947    0.0000 </r>
       <r>   10.6028    0.0000 </r>
       <r>   11.0047    0.0000 </r>
       <r>   12.1373    0.0000 </r>
      </set>
      <set comment="kpoint 8">
       <r>  -54.1830    1.0000 </r>
       <r>  -54.1821    1.0000 </r>
       <r>  -54.1821    1.0000 </r>
       <r>  -29.4501    1.0000 </r>
       <r>  -14.7174    1.0000 </r>
       <r>  -14.0683    1.0000 </r>
       <r>  -13.8865    1.0000 </r>
       <r>  -11.6792    1.0000 </r>
       <r>  -11.4327    1.0000 </r>
       <r>  -11.2757    1.0000 </r>
       <r>   -4.9535    1.0000 </r>
       <r>   -4.4628    1.0000 </r>
       <r>   -4.3198    1.0000 </r>
       <r>   -4.2337    1.0000 </r>
       <r>   -4.2103    1.0000 </r>
       <r>   -2.4862    1.0000 </r>
       <r>    0.4906    1.0000 </r>
       <r>    0.9107    1.0000 </r>
       <r>    1.0070    1.0000 </r>
       <r>    1.3695    1.0000 </r>
       <r>    1.9444    1.0000 </r>
       <r>    2.3457    1.0000 </r>
       <r>    3.0022    0.4426 </r>
       <r>    3.7337   -0.0155 </r>
       <r>   11.0529    0.0000 </r>
       <r>   11.1531    0.0000 </r>
       <r>   11.2640    0.0000 </r>
       <r>   11.8397    0.0000 </r>
      </set>
      <set comment="kpoint 9">
       <r>  -54.1831    1.0000 </r>
       <r>  -54.1830    1.0000 </r>
       <r>  -54.1820    1.0000 </r>
       <r>  -29.4396    1.0000 </r>
       <r>  -14.3801    1.0000 </r>
       <r>  -14.0701    1.0000 </r>
       <r>  -13.9367    1.0000 </r>
       <r>  -11.7022    1.0000 </r>
       <r>  -11.5452    1.0000 </r>
       <r>  -11.4263    1.0000 </r>
       <r>   -5.1080    1.0000 </r>
       <r>   -4.7282    1.0000 </r>
       <r>   -4.5518    1.0000 </r>
       <r>   -4.3472    1.0000 </r>
       <r>   -4.3423    1.0000 </r>
       <r>   -2.8282    1.0000 </r>
       <r>    0.5746    1.0000 </r>
       <r>    0.9866    1.0000 </r>
       <r>    1.0106    1.0000 </r>
       <r>    1.9746    1.0000 </r>
       <r>    2.0925    1.0000 </r>
       <r>    2.6313    1.0000 </r>
       <r>    3.1677    0.0948 </r>
       <r>    4.3579    0.0000 </r>
       <r>   10.7651    0.0000 </r>
       <r>   11.1148    0.0000 </r>
       <r>   11.1720    0.0000 </r>
       <r>   11.9979    0.0000 </r>
      </set>
      <set comment="kpoint 10">
       <r>  -54.1831    1.0000 </r>
       <r>  -54.1831    1.0000 </r>
       <r>  -54.1830    1.0000 </r>
       <r>  -29.4296    1.0000 </r>
       <r>  -14.0793    1.0000 </r>
       <r>  -13.8905    1.0000 </r>
       <r>  -13.8905    1.0000 </r>
       <r>  -11.8163    1.0000 </r>
       <r>  -11.8163    1.0000 </r>
       <r>  -11.6841    1.0000 </r>
       <r>   -5.1061    1.0000 </r>
       <r>   -5.1061    1.0000 </r>
       <r>   -4.4768    1.0000 </r>
       <r>   -4.4289    1.0000 </r>
       <r>   -4.4289    1.0000 </r>
       <r>   -3.5546    1.0000 </r>
       <r>    0.8859    1.0000 </r>
       <r>    1.0136    1.0000 </r>
       <r>    1.0136    1.0000 </r>
       <r>    2.5670    1.0000 </r>
       <r>    2.5670    1.0000 </r>
       <r>    2.7020    1.0000 </r>
       <r>    4.3412    0.0000 </r>
       <r>    4.3412    0.0000 </r>
       <r>   10.3170    0.0000 </r>
       <r>   10.4019    0.0000 </r>
       <r>   10.4019    0.0000 </r>
       <r>   12.7982    0.0000 </r>
      </set>
     </set>
     <set comment="spin 2">
      <set comment="kpoint 1">
       <r>  -49.9519    1.0000 </r>
       <r>  -49.9519    1.0000 </r>
       <r>  -49.9519    1.0000 </r>
       <r>  -29.4905    1.0000 </r>
       <r>  -15.0748    1.0000 </r>
       <r>  -13.5591    1.0000 </r>
       <r>  -13.5591    1.0000 </r>
       <r>  -11.5300    1.0000 </r>
       <r>  -11.5300    1.0000 </r>
       <r>  -11.4684    1.0000 </r>
       <r>   -1.2721    1.0000 </r>
       <r>   -1.0605    1.0000 </r>
       <r>   -1.0605    1.0000 </r>
       <r>    1.4035    1.0000 </r>
       <r>    1.4035    1.0000 </r>
       <r>    1.8387    1.0000 </r>
       <r>    1.8596    1.0000 </r>
       <r>    2.1825    1.0000 </r>
       <r>    2.1825    1.0000 </r>
       <r>    4.2079    0.0000 </r>
       <r>    4.2576    0.0000 </r>
       <r>    4.2576    0.0000 </r>
       <r>    4.8398    0.0000 </r>
       <r>    4.8398    0.0000 </r>
       <r>    8.9463    0.0000 </r>
       <r>    8.9463    0.0000 </r>
       <r>   10.0259    0.0000 </r>
       <r>   11.5388    0.0000 </r>
      </set>
      <set comment="kpoint 2">
       <r>  -49.9531    1.0000 </r>
       <r>  -49.9518    1.0000 </r>
       <r>  -49.9517    1.0000 </r>
       <r>  -29.4779    1.0000 </r>
       <r>  -15.0455    1.0000 </r>
       <r>  -13.7388    1.0000 </r>
       <r>  -13.5244    1.0000 </r>
       <r>  -11.5251    1.0000 </r>
       <r>  -11.4743    1.0000 </r>
       <r>  -11.2419    1.0000 </r>
       <r>   -1.7080    1.0000 </r>
       <r>   -1.0739    1.0000 </r>
       <r>   -1.0325    1.0000 </r>
       <r>    0.6980    1.0000 </r>
       <r>    0.7596    1.0000 </r>
       <r>    1.3478    1.0000 </r>
       <r>    1.7203    1.0000 </r>
       <r>    1.8424    1.0000 </r>
       <r>    1.9770    1.0000 </r>
       <r>    4.2662    0.0000 </r>
       <r>    4.7503    0.0000 </r>
       <r>    4.8341    0.0000 </r>
       <r>    4.9259    0.0000 </r>
       <r>    5.7748    0.0000 </r>
       <r>    9.7052    0.0000 </r>
       <r>    9.7667    0.0000 </r>
       <r>   10.9782    0.0000 </r>
       <r>   11.5633    0.0000 </r>
      </set>
      <set comment="kpoint 3">
       <r>  -49.9543    1.0000 </r>
       <r>  -49.9517    1.0000 </r>
       <r>  -49.9516    1.0000 </r>
       <r>  -29.4652    1.0000 </r>
       <r>  -15.0531    1.0000 </r>
       <r>  -13.8283    1.0000 </r>
       <r>  -13.4886    1.0000 </r>
       <r>  -11.5209    1.0000 </r>
       <r>  -11.4347    1.0000 </r>
       <r>  -11.0557    1.0000 </r>
       <r>   -2.0978    1.0000 </r>
       <r>   -1.0568    1.0000 </r>
       <r>   -1.0007    1.0000 </r>
       <r>   -0.0175    1.0000 </r>
       <r>    0.3395    1.0000 </r>
       <r>    1.1723    1.0000 </r>
       <r>    1.4464    1.0000 </r>
       <r>    1.5541    1.0000 </r>
       <r>    1.8163    1.0000 </r>
       <r>    4.2962    0.0000 </r>
       <r>    4.8135    0.0000 </r>
       <r>    5.3367    0.0000 </r>
       <r>    5.3571    0.0000 </r>
       <r>    6.3904    0.0000 </r>
       <r>   10.5300    0.0000 </r>
       <r>   10.7555    0.0000 </r>
       <r>   11.5590    0.0000 </r>
       <r>   12.3183    0.0000 </r>
      </set>
      <set comment="kpoint 4">
       <r>  -49.9531    1.0000 </r>
       <r>  -49.9530    1.0000 </r>
       <r>  -49.9517    1.0000 </r>
       <r>  -29.4661    1.0000 </r>
       <r>  -14.9214    1.0000 </r>
       <r>  -13.8568    1.0000 </r>
       <r>  -13.5779    1.0000 </r>
       <r>  -11.5089    1.0000 </r>
       <r>  -11.3763    1.0000 </r>
       <r>  -11.2206    1.0000 </r>
       <r>   -2.0187    1.0000 </r>
       <r>   -1.2161    1.0000 </r>
       <r>   -0.9648    1.0000 </r>
       <r>   -0.2036    1.0000 </r>
       <r>    0.6175    1.0000 </r>
       <r>    0.8239    1.0000 </r>
       <r>    1.6380    1.0000 </r>
       <r>    1.7161    1.0000 </r>
       <r>    2.2020    1.0000 </r>
       <r>    4.7822    0.0000 </r>
       <r>    4.9000    0.0000 </r>
       <r>    5.0269    0.0000 </r>
       <r>    5.2762    0.0000 </r>
       <r>    6.4228    0.0000 </r>
       <r>   10.1903    0.0000 </r>
       <r>   10.5381    0.0000 </r>
       <r>   11.2503    0.0000 </r>
       <r>   12.0973    0.0000 </r>
      </set>
      <set comment="kpoint 5">
       <r>  -49.9541    1.0000 </r>
       <r>  -49.9528    1.0000 </r>
       <r>  -49.9515    1.0000 </r>
       <r>  -29.4543    1.0000 </r>
       <r>  -14.8086    1.0000 </r>
       <r>  -13.9686    1.0000 </r>
       <r>  -13.5858    1.0000 </r>
       <r>  -11.5175    1.0000 </r>
       <r>  -11.3267    1.0000 </r>
       <r>  -11.1618    1.0000 </r>
       <r>   -2.3487    1.0000 </r>
       <r>   -1.3001    1.0000 </r>
       <r>   -0.8919    1.0000 </r>
       <r>   -0.8163    1.0000 </r>
       <r>    0.2215    1.0000 </r>
       <r>    0.7928    1.0000 </r>
       <r>    1.3696    1.0000 </r>
       <r>    1.5992    1.0000 </r>
       <r>    2.3069    1.0000 </r>
       <r>    4.8533    0.0000 </r>
       <r>    5.2936    0.0000 </r>
       <r>    5.3522    0.0000 </r>
       <r>    5.4076    0.0000 </r>
       <r>    7.0848    0.0000 </r>
       <r>   10.8912    0.0000 </r>
       <r>   11.4308    0.0000 </r>
       <r>   11.7173    0.0000 </r>
       <r>   12.2067    0.0000 </r>
      </set>
      <set comment="kpoint 6">
       <r>  -49.9541    1.0000 </r>
       <r>  -49.9541    1.0000 </r>
       <r>  -49.9514    1.0000 </r>
       <r>  -29.4433    1.0000 </r>
       <r>  -14.4438    1.0000 </r>
       <r>  -14.1043    1.0000 </r>
       <r>  -13.8108    1.0000 </r>
       <r>  -11.4771    1.0000 </r>
       <r>  -11.2737    1.0000 </r>
       <r>  -11.2384    1.0000 </r>
       <r>   -2.6917    1.0000 </r>
       <r>   -1.4922    1.0000 </r>
       <r>   -1.4145    1.0000 </r>
       <r>   -0.5681    1.0000 </r>
       <r>    0.1085    1.0000 </r>
       <r>    0.2769    1.0000 </r>
       <r>    1.4515    1.0000 </r>
       <r>    1.5384    1.0000 </r>
       <r>    2.7756    1.0000 </r>
       <r>    5.3124    0.0000 </r>
       <r>    5.3525    0.0000 </r>
       <r>    5.4685    0.0000 </r>
       <r>    5.5557    0.0000 </r>
       <r>    7.8554    0.0000 </r>
       <r>   11.1606    0.0000 </r>
       <r>   11.4666    0.0000 </r>
       <r>   12.3916    0.0000 </r>
       <r>   12.4442    0.0000 </r>
      </set>
      <set comment="kpoint 7">
       <r>  -49.9529    1.0000 </r>
       <r>  -49.9529    1.0000 </r>
       <r>  -49.9528    1.0000 </r>
       <r>  -29.4550    1.0000 </r>
       <r>  -14.7665    1.0000 </r>
       <r>  -13.7506    1.0000 </r>
       <r>  -13.7506    1.0000 </r>
       <r>  -11.5081    1.0000 </r>
       <r>  -11.5081    1.0000 </r>
       <r>  -11.1781    1.0000 </r>
       <r>   -2.2713    1.0000 </r>
       <r>   -1.1833    1.0000 </r>
       <r>   -1.1833    1.0000 </r>
       <r>   -0.2834    1.0000 </r>
       <r>    0.0297    1.0000 </r>
       <r>    0.0297    1.0000 </r>
       <r>    1.9797    1.0000 </r>
       <r>    1.9797    1.0000 </r>
       <r>    2.3487    1.0000 </r>
       <r>    5.0407    0.0000 </r>
       <r>    5.1227    0.0000 </r>
       <r>    5.1228    0.0000 </r>
       <r>    6.4053    0.0000 </r>
       <r>    6.4053    0.0000 </r>
       <r>   10.7085    0.0000 </r>
       <r>   10.7142    0.0000 </r>
       <r>   11.0633    0.0000 </r>
       <r>   12.2351    0.0000 </r>
      </set>
      <set comment="kpoint 8">
       <r>  -49.9541    1.0000 </r>
       <r>  -49.9528    1.0000 </r>
       <r>  -49.9527    1.0000 </r>
       <r>  -29.4439    1.0000 </r>
       <r>  -14.5836    1.0000 </r>
       <r>  -13.9395    1.0000 </r>
       <r>  -13.6292    1.0000 </r>
       <r>  -11.6548    1.0000 </r>
       <r>  -11.3992    1.0000 </r>
       <r>  -11.2547    1.0000 </r>
       <r>   -2.5824    1.0000 </r>
       <r>   -1.3081    1.0000 </r>
       <r>   -1.1426    1.0000 </r>
       <r>   -0.8282    1.0000 </r>
       <r>   -0.3242    1.0000 </r>
       <r>    0.0647    1.0000 </r>
       <r>    1.9693    1.0000 </r>
       <r>    2.1077    1.0000 </r>
       <r>    2.4407    1.0017 </r>
       <r>    5.1467    0.0000 </r>
       <r>    5.4245    0.0000 </r>
       <r>    5.4611    0.0000 </r>
       <r>    6.3703    0.0000 </r>
       <r>    7.2470    0.0000 </r>
       <r>   11.1477    0.0000 </r>
       <r>   11.2411    0.0000 </r>
       <r>   11.3680    0.0000 </r>
       <r>   11.9024    0.0000 </r>
      </set>
      <set comment="kpoint 9">
       <r>  -49.9540    1.0000 </r>
       <r>  -49.9540    1.0000 </r>
       <r>  -49.9526    1.0000 </r>
       <r>  -29.4335    1.0000 </r>
       <r>  -14.2500    1.0000 </r>
       <r>  -13.9492    1.0000 </r>
       <r>  -13.7487    1.0000 </r>
       <r>  -11.6791    1.0000 </r>
       <r>  -11.5142    1.0000 </r>
       <r>  -11.4029    1.0000 </r>
       <r>   -2.9369    1.0000 </r>
       <r>   -1.4817    1.0000 </r>
       <r>   -1.1344    1.0000 </r>
       <r>   -1.0499    1.0000 </r>
       <r>   -0.3290    1.0000 </r>
       <r>   -0.3245    1.0000 </r>
       <r>    2.2004    1.0000 </r>
       <r>    2.2563    1.0000 </r>
       <r>    2.8135    1.0199 </r>
       <r>    5.4850    0.0000 </r>
       <r>    5.5051    0.0000 </r>
       <r>    5.6271    0.0000 </r>
       <r>    6.7273    0.0000 </r>
       <r>    7.8475    0.0000 </r>
       <r>   10.8343    0.0000 </r>
       <r>   11.2138    0.0000 </r>
       <r>   11.2822    0.0000 </r>
       <r>   12.0611    0.0000 </r>
      </set>
      <set comment="kpoint 10">
       <r>  -49.9540    1.0000 </r>
       <r>  -49.9540    1.0000 </r>
       <r>  -49.9540    1.0000 </r>
       <r>  -29.4236    1.0000 </r>
       <r>  -13.9697    1.0000 </r>
       <r>  -13.7609    1.0000 </r>
       <r>  -13.7609    1.0000 </r>
       <r>  -11.7873    1.0000 </r>
       <r>  -11.7873    1.0000 </r>
       <r>  -11.6564    1.0000 </r>
       <r>   -3.3159    1.0000 </r>
       <r>   -1.4707    1.0000 </r>
       <r>   -1.4707    1.0000 </r>
       <r>   -0.7422    1.0000 </r>
       <r>   -0.5849    1.0000 </r>
       <r>   -0.5849    1.0000 </r>
       <r>    2.7610    1.0000 </r>
       <r>    2.7610    1.0000 </r>
       <r>    2.8888    0.7731 </r>
       <r>    5.6940    0.0000 </r>
       <r>    5.7104    0.0000 </r>
       <r>    5.7104    0.0000 </r>
       <r>    7.8324    0.0000 </r>
       <r>    7.8324    0.0000 </r>
       <r>   10.4079    0.0000 </r>
       <r>   10.4848    0.0000 </r>
       <r>   10.4848    0.0000 </r>
       <r>   12.8315    0.0000 </r>
      </set>
     </set>
    </set>
   </array>
  </eigenvalues>
  <separator name="orbital magnetization" >
   <v name="MAGDIPOLOUT">      0.00000000      0.00000000      0.00000000</v>
  </separator>
 </calculation>
 <structure name="finalpos" >
  <crystal>
   <varray name="basis" >
    <v>       3.85000000       0.00000000       0.00000000 </v>
    <v>       0.00000000       3.85000000       0.00000000 </v>
    <v>       0.00000000       0.00000000       3.85000000 </v>
   </varray>
   <i name="volume">     57.06662500 </i>
   <varray name="rec_basis" >
    <v>       0.25974026       0.00000000       0.00000000 </v>
    <v>       0.00000000       0.25974026       0.00000000 </v>
    <v>       0.00000000       0.00000000       0.25974026 </v>
   </varray>
  </crystal>
  <varray name="positions" >
   <v>       0.50000000       0.50000000       0.50000000 </v>
   <v>       0.00000000       0.00000000       0.00000000 </v>
   <v>       0.50000000       0.00000000       0.00000000 </v>
   <v>       0.00000000       0.50000000       0.00000000 </v>
   <v>       0.00000000       0.00000000       0.50000000 </v>
  </varray>
 </structure>
</modeling>
