unknown system                          
   1.00000000000000     
     3.886808    0.000000    0.000000
     0.000000    3.886808    0.000000
     0.000000    0.000000    3.886808
   Sr   Fe   O 
     1     1     3
Direct
  0.500000  0.500000  0.500000
  0.000000  0.000000  0.000000
  0.500000  0.000000  0.000000
  0.000000  0.500000  0.000000
  0.000000  0.000000  0.500000
 
   32   32   32
  1200.8      1134.6      952.24      698.75      436.64      224.96      96.345      45.641      39.031      46.487    
  67.014      109.14      178.82      271.79      370.04      446.19      475.00      446.19      370.04      271.79    
  178.82      109.14      67.014      46.487      39.031      45.641      96.345      224.96      436.64      698.75    
  952.24      1134.6      1134.6      1071.1      896.44      654.74      406.46      207.80      88.824      43.159    
  37.581      44.731      64.044      103.58      169.30      257.41      350.90      423.55      451.07      423.55    
  350.90      257.41      169.30      103.58      64.044      44.731      37.581      43.159      88.824      207.80    
  406.46      654.74      896.44      1071.1      952.24      896.44      744.01      535.82      326.15      163.15    
  69.897      37.046      33.629      39.947      56.131      88.714      143.52      218.06      298.05      360.69    
  384.51      360.69      298.05      218.06      143.52      88.714      56.131      39.947      33.629      37.046    
  69.897      163.15      326.15      535.82      744.01      896.44      698.75      654.74      535.82      376.90    
  222.21      108.08      48.170      30.064      28.194      33.326      45.705      69.179      108.99      164.25    
  224.64      272.51      290.83      272.51      224.64      164.25      108.99      69.179      45.705      33.326    
  28.194      30.064      48.170      108.08      222.21      376.90      535.82      654.74      436.64      406.46    
  326.15      222.21      126.27      61.269      31.699      23.699      22.487      26.292      35.187      50.283    
  75.097      110.13      149.25      180.77      192.92      180.77      149.25      110.13      75.097      50.283    
  35.187      26.292      22.487      23.699      31.699      61.269      126.27      222.21      326.15      406.46    
  224.96      207.80      163.15      108.08      61.269      33.548      22.641      18.245      17.477      20.001    
  25.853      35.274      48.904      67.616      88.766      106.07      112.81      106.07      88.766      67.616    
  48.904      35.274      25.853      20.001      17.477      18.245      22.641      33.548      61.269      108.08    
  163.15      207.80      96.345      88.824      69.897      48.170      31.699      22.641      17.223      14.303    
  13.669      15.070      18.508      24.108      31.733      40.833      50.536      58.397      61.460      58.397    
  50.536      40.833      31.733      24.108      18.508      15.070      13.669      14.303      17.223      22.641    
  31.699      48.170      69.897      88.824      45.641      43.159      37.046      30.064      23.699      18.245    
  14.303      11.993      11.148      11.602      13.318      16.311      20.455      25.303      30.008      33.484    
  34.780      33.484      30.008      25.303      20.455      16.311      13.318      11.602      11.148      11.993    
  14.303      18.245      23.699      30.064      37.046      43.159      39.031      37.581      33.629      28.194    
  22.487      17.477      13.669      11.148      9.7814      9.4128      9.9412      11.292      13.327      15.759    
  18.126      19.866      20.508      19.866      18.126      15.759      13.327      11.292      9.9412      9.4128    
  9.7814      11.148      13.669      17.477      22.487      28.194      33.629      37.581      46.487      44.731    
  39.947      33.326      26.292      20.001      15.070      11.602      9.4128      8.2503      7.9072      8.2212    
  9.0265      10.111      11.204      12.018      12.319      12.018      11.204      10.111      9.0265      8.2212    
  7.9072      8.2503      9.4128      11.602      15.070      20.001      26.292      33.326      39.947      44.731    
  67.014      64.044      56.131      45.705      35.187      25.853      18.508      13.318      9.9412      7.9072    
  6.8332      6.4416      6.5119      6.8503      7.2775      7.6253      7.7590      7.6253      7.2775      6.8503    
  6.5119      6.4416      6.8332      7.9072      9.9412      13.318      18.508      25.853      35.187      45.705    
  56.131      64.044      109.14      103.58      88.714      69.179      50.283      35.274      24.108      16.311    
  11.292      8.2212      6.4416      5.5073      5.1033      5.0103      5.0844      5.2060      5.2634      5.2060    
  5.0844      5.0103      5.1033      5.5073      6.4416      8.2212      11.292      16.311      24.108      35.274    
  50.283      69.179      88.714      103.58      178.82      169.30      143.52      108.99      75.097      48.904    
  31.733      20.455      13.327      9.0265      6.5119      5.1033      4.3431      3.9533      3.8041      3.8001    
  3.8201      3.8001      3.8041      3.9533      4.3431      5.1033      6.5119      9.0265      13.327      20.455    
  31.733      48.904      75.097      108.99      143.52      169.30      271.79      257.41      218.06      164.25    
  110.13      67.616      40.833      25.303      15.759      10.111      6.8503      5.0103      3.9533      3.3206    
  2.9927      2.8970      2.8932      2.8970      2.9927      3.3206      3.9533      5.0103      6.8503      10.111    
  15.759      25.303      40.833      67.616      110.13      164.25      218.06      257.41      370.04      350.90    
  298.05      224.64      149.25      88.766      50.536      30.008      18.126      11.204      7.2775      5.0844    
  3.8041      2.9927      2.5366      2.3819      2.3656      2.3819      2.5366      2.9927      3.8041      5.0844    
  7.2775      11.204      18.126      30.008      50.536      88.766      149.25      224.64      298.05      350.90    
  446.19      423.55      360.69      272.51      180.77      106.07      58.397      33.484      19.866      12.018    
  7.6253      5.2060      3.8001      2.8970      2.3819      2.2087      2.1925      2.2087      2.3819      2.8970    
  3.8001      5.2060      7.6253      12.018      19.866      33.484      58.397      106.07      180.77      272.51    
  360.69      423.55      475.00      451.07      384.51      290.83      192.92      112.81      61.460      34.780    
  20.508      12.319      7.7590      5.2634      3.8201      2.8932      2.3656      2.1925      2.1787      2.1925    
  2.3656      2.8932      3.8201      5.2634      7.7590      12.319      20.508      34.780      61.460      112.81    
  192.92      290.83      384.51      451.07      446.19      423.55      360.69      272.51      180.77      106.07    
  58.397      33.484      19.866      12.018      7.6253      5.2060      3.8001      2.8970      2.3819      2.2087    
  2.1925      2.2087      2.3819      2.8970      3.8001      5.2060      7.6253      12.018      19.866      33.484    
  58.397      106.07      180.77      272.51      360.69      423.55      370.04      350.90      298.05      224.64    
  149.25      88.766      50.536      30.008      18.126      11.204      7.2775      5.0844      3.8041      2.9927    
  2.5366      2.3819      2.3656      2.3819      2.5366      2.9927      3.8041      5.0844      7.2775      11.204    
  18.126      30.008      50.536      88.766      149.25      224.64      298.05      350.90      271.79      257.41    
  218.06      164.25      110.13      67.616      40.833      25.303      15.759      10.111      6.8503      5.0103    
  3.9533      3.3206      2.9927      2.8970      2.8932      2.8970      2.9927      3.3206      3.9533      5.0103    
  6.8503      10.111      15.759      25.303      40.833      67.616      110.13      164.25      218.06      257.41    
  178.82      169.30      143.52      108.99      75.097      48.904      31.733      20.455      13.327      9.0265    
  6.5119      5.1033      4.3431      3.9533      3.8041      3.8001      3.8201      3.8001      3.8041      3.9533    
  4.3431      5.1033      6.5119      9.0265      13.327      20.455      31.733      48.904      75.097      108.99    
  143.52      169.30      109.14      103.58      88.714      69.179      50.283      35.274      24.108      16.311    
  11.292      8.2212      6.4416      5.5073      5.1033      5.0103      5.0844      5.2060      5.2634      5.2060    
  5.0844      5.0103      5.1033      5.5073      6.4416      8.2212      11.292      16.311      24.108      35.274    
  50.283      69.179      88.714      103.58      67.014      64.044      56.131      45.705      35.187      25.853    
  18.508      13.318      9.9412      7.9072      6.8332      6.4416      6.5119      6.8503      7.2775      7.6253    
  7.7590      7.6253      7.2775      6.8503      6.5119      6.4416      6.8332      7.9072      9.9412      13.318    
  18.508      25.853      35.187      45.705      56.131      64.044      46.487      44.731      39.947      33.326    
  26.292      20.001      15.070      11.602      9.4128      8.2503      7.9072      8.2212      9.0265      10.111    
  11.204      12.018      12.319      12.018      11.204      10.111      9.0265      8.2212      7.9072      8.2503    
  9.4128      11.602      15.070      20.001      26.292      33.326      39.947      44.731      39.031      37.581    
  33.629      28.194      22.487      17.477      13.669      11.148      9.7814      9.4128      9.9412      11.292    
  13.327      15.759      18.126      19.866      20.508      19.866      18.126      15.759      13.327      11.292    
  9.9412      9.4128      9.7814      11.148      13.669      17.477      22.487      28.194      33.629      37.581    
  45.641      43.159      37.046      30.064      23.699      18.245      14.303      11.993      11.148      11.602    
  13.318      16.311      20.455      25.303      30.008      33.484      34.780      33.484      30.008      25.303    
  20.455      16.311      13.318      11.602      11.148      11.993      14.303      18.245      23.699      30.064    
  37.046      43.159      96.345      88.824      69.897      48.170      31.699      22.641      17.223      14.303    
  13.669      15.070      18.508      24.108      31.733      40.833      50.536      58.397      61.460      58.397    
  50.536      40.833      31.733      24.108      18.508      15.070      13.669      14.303      17.223      22.641    
  31.699      48.170      69.897      88.824      224.96      207.80      163.15      108.08      61.269      33.548    
  22.641      18.245      17.477      20.001      25.853      35.274      48.904      67.616      88.766      106.07    
  112.81      106.07      88.766      67.616      48.904      35.274      25.853      20.001      17.477      18.245    
  22.641      33.548      61.269      108.08      163.15      207.80      436.64      406.46      326.15      222.21    
  126.27      61.269      31.699      23.699      22.487      26.292      35.187      50.283      75.097      110.13    
  149.25      180.77      192.92      180.77      149.25      110.13      75.097      50.283      35.187      26.292    
  22.487      23.699      31.699      61.269      126.27      222.21      326.15      406.46      698.75      654.74    
  535.82      376.90      222.21      108.08      48.170      30.064      28.194      33.326      45.705      69.179    
  108.99      164.25      224.64      272.51      290.83      272.51      224.64      164.25      108.99      69.179    
  45.705      33.326      28.194      30.064      48.170      108.08      222.21      376.90      535.82      654.74    
  952.24      896.44      744.01      535.82      326.15      163.15      69.897      37.046      33.629      39.947    
  56.131      88.714      143.52      218.06      298.05      360.69      384.51      360.69      298.05      218.06    
  143.52      88.714      56.131      39.947      33.629      37.046      69.897      163.15      326.15      535.82    
  744.01      896.44      1134.6      1071.1      896.44      654.74      406.46      207.80      88.824      43.159    
  37.581      44.731      64.044      103.58      169.30      257.41      350.90      423.55      451.07      423.55    
  350.90      257.41      169.30      103.58      64.044      44.731      37.581      43.159      88.824      207.80    
  406.46      654.74      896.44      1071.1      1134.6      1071.1      896.44      654.74      406.46      207.80    
  88.824      43.159      37.581      44.731      64.044      103.58      169.30      257.41      350.90      423.55    
  451.07      423.55      350.90      257.41      169.30      103.58      64.044      44.731      37.581      43.159    
  88.824      207.80      406.46      654.74      896.44      1071.1      1071.1      1010.2      843.13      612.94    
  378.01      191.81      81.930      40.911      36.198      43.059      61.246      98.332      160.25      243.67    
  332.52      401.74      428.00      401.74      332.52      243.67      160.25      98.332      61.246      43.059    
  36.198      40.911      81.930      191.81      378.01      612.94      843.13      1010.2      896.44      843.13    
  697.81      500.19      302.48      150.31      64.642      35.369      32.429      38.496      53.794      84.317    
  135.81      206.15      281.92      341.40      364.05      341.40      281.92      206.15      135.81      84.317    
  53.794      38.496      32.429      35.369      64.642      150.31      302.48      500.19      697.81      843.13    
  654.74      612.94      500.19      350.17      205.19      99.416      44.944      28.962      27.243      32.173    
  43.957      65.952      103.22      155.12      212.04      257.26      274.58      257.26      212.04      155.12    
  103.22      65.952      43.957      32.173      27.243      28.962      44.944      99.416      205.19      350.17    
  500.19      612.94      406.46      378.01      302.48      205.19      116.13      56.623      30.147      22.915    
  21.791      25.449      33.958      48.211      71.393      104.13      140.77      170.35      181.78      170.35    
  140.77      104.13      71.393      48.211      33.958      25.449      21.791      22.915      30.147      56.623    
  116.13      205.19      302.48      378.01      207.80      191.81      150.31      99.416      56.623      31.694    
  21.876      17.704      16.997      19.426      25.027      34.031      46.867      64.324      84.033      100.17    
  106.46      100.17      84.033      64.324      46.867      34.031      25.027      19.426      16.997      17.704    
  21.876      31.694      56.623      99.416      150.31      191.81      88.824      81.930      64.642      44.944    
  30.147      21.876      16.712      13.936      13.343      14.693      17.989      23.350      30.642      39.266    
  48.348      55.674      58.526      55.674      48.348      39.266      30.642      23.350      17.989      14.693    
  13.343      13.936      16.712      21.876      30.147      44.944      64.642      81.930      43.159      40.911    
  35.369      28.962      22.915      17.704      13.936      11.726      10.916      11.353      13.002      15.874    
  19.846      24.487      28.989      32.309      33.541      32.309      28.989      24.487      19.846      15.874    
  13.002      11.353      10.916      11.726      13.936      17.704      22.915      28.962      35.369      40.911    
  37.581      36.198      32.429      27.243      21.791      16.997      13.343      10.916      9.5959      9.2371    
  9.7444      11.045      13.003      15.341      17.613      19.283      19.899      19.283      17.613      15.341    
  13.003      11.045      9.7444      9.2371      9.5959      10.916      13.343      16.997      21.791      27.243    
  32.429      36.198      44.731      43.059      38.496      32.173      25.449      19.426      14.693      11.353    
  9.2371      8.1100      7.7759      8.0792      8.8587      9.9078      10.965      11.751      12.042      11.751    
  10.965      9.9078      8.8587      8.0792      7.7759      8.1100      9.2371      11.353      14.693      19.426    
  25.449      32.173      38.496      43.059      64.044      61.246      53.794      43.957      33.958      25.027    
  17.989      13.002      9.7444      7.7759      6.7341      6.3545      6.4253      6.7578      7.1761      7.5158    
  7.6462      7.5158      7.1761      6.7578      6.4253      6.3545      6.7341      7.7759      9.7444      13.002    
  17.989      25.027      33.958      43.957      53.794      61.246      103.58      98.332      84.317      65.952    
  48.211      34.031      23.350      15.874      11.045      8.0792      6.3545      5.4477      5.0575      4.9724    
  5.0499      5.1712      5.2278      5.1712      5.0499      4.9724      5.0575      5.4477      6.3545      8.0792    
  11.045      15.874      23.350      34.031      48.211      65.952      84.317      98.332      169.30      160.25    
  135.81      103.22      71.393      46.867      30.642      19.846      13.003      8.8587      6.4253      5.0575    
  4.3204      3.9467      3.8075      3.8067      3.8268      3.8067      3.8075      3.9467      4.3204      5.0575    
  6.4253      8.8587      13.003      19.846      30.642      46.867      71.393      103.22      135.81      160.25    
  257.41      243.67      206.15      155.12      104.13      64.324      39.266      24.487      15.341      9.9078    
  6.7578      4.9724      3.9467      3.3377      3.0256      2.9356      2.9323      2.9356      3.0256      3.3377    
  3.9467      4.9724      6.7578      9.9078      15.341      24.487      39.266      64.324      104.13      155.12    
  206.15      243.67      350.90      332.52      281.92      212.04      140.77      84.033      48.348      28.989    
  17.613      10.965      7.1761      5.0499      3.8075      3.0256      2.5897      2.4423      2.4267      2.4423    
  2.5897      3.0256      3.8075      5.0499      7.1761      10.965      17.613      28.989      48.348      84.033    
  140.77      212.04      281.92      332.52      423.55      401.74      341.40      257.26      170.35      100.17    
  55.674      32.309      19.283      11.751      7.5158      5.1712      3.8067      2.9356      2.4423      2.2765    
  2.2605      2.2765      2.4423      2.9356      3.8067      5.1712      7.5158      11.751      19.283      32.309    
  55.674      100.17      170.35      257.26      341.40      401.74      451.07      428.00      364.05      274.58    
  181.78      106.46      58.526      33.541      19.899      12.042      7.6462      5.2278      3.8268      2.9323    
  2.4267      2.2605      2.2467      2.2605      2.4267      2.9323      3.8268      5.2278      7.6462      12.042    
  19.899      33.541      58.526      106.46      181.78      274.58      364.05      428.00      423.55      401.74    
  341.40      257.26      170.35      100.17      55.674      32.309      19.283      11.751      7.5158      5.1712    
  3.8067      2.9356      2.4423      2.2765      2.2605      2.2765      2.4423      2.9356      3.8067      5.1712    
  7.5158      11.751      19.283      32.309      55.674      100.17      170.35      257.26      341.40      401.74    
  350.90      332.52      281.92      212.04      140.77      84.033      48.348      28.989      17.613      10.965    
  7.1761      5.0499      3.8075      3.0256      2.5897      2.4423      2.4267      2.4423      2.5897      3.0256    
  3.8075      5.0499      7.1761      10.965      17.613      28.989      48.348      84.033      140.77      212.04    
  281.92      332.52      257.41      243.67      206.15      155.12      104.13      64.324      39.266      24.487    
  15.341      9.9078      6.7578      4.9724      3.9467      3.3377      3.0256      2.9356      2.9323      2.9356    
  3.0256      3.3377      3.9467      4.9724      6.7578      9.9078      15.341      24.487      39.266      64.324    
  104.13      155.12      206.15      243.67      169.30      160.25      135.81      103.22      71.393      46.867    
  30.642      19.846      13.003      8.8587      6.4253      5.0575      4.3204      3.9467      3.8075      3.8067    
  3.8268      3.8067      3.8075      3.9467      4.3204      5.0575      6.4253      8.8587      13.003      19.846    
  30.642      46.867      71.393      103.22      135.81      160.25      103.58      98.332      84.317      65.952    
  48.211      34.031      23.350      15.874      11.045      8.0792      6.3545      5.4477      5.0575      4.9724    
  5.0499      5.1712      5.2278      5.1712      5.0499      4.9724      5.0575      5.4477      6.3545      8.0792    
  11.045      15.874      23.350      34.031      48.211      65.952      84.317      98.332      64.044      61.246    
  53.794      43.957      33.958      25.027      17.989      13.002      9.7444      7.7759      6.7341      6.3545    
  6.4253      6.7578      7.1761      7.5158      7.6462      7.5158      7.1761      6.7578      6.4253      6.3545    
  6.7341      7.7759      9.7444      13.002      17.989      25.027      33.958      43.957      53.794      61.246    
  44.731      43.059      38.496      32.173      25.449      19.426      14.693      11.353      9.2371      8.1100    
  7.7759      8.0792      8.8587      9.9078      10.965      11.751      12.042      11.751      10.965      9.9078    
  8.8587      8.0792      7.7759      8.1100      9.2371      11.353      14.693      19.426      25.449      32.173    
  38.496      43.059      37.581      36.198      32.429      27.243      21.791      16.997      13.343      10.916    
  9.5959      9.2371      9.7444      11.045      13.003      15.341      17.613      19.283      19.899      19.283    
  17.613      15.341      13.003      11.045      9.7444      9.2371      9.5959      10.916      13.343      16.997    
  21.791      27.243      32.429      36.198      43.159      40.911      35.369      28.962      22.915      17.704    
  13.936      11.726      10.916      11.353      13.002      15.874      19.846      24.487      28.989      32.309    
  33.541      32.309      28.989      24.487      19.846      15.874      13.002      11.353      10.916      11.726    
  13.936      17.704      22.915      28.962      35.369      40.911      88.824      81.930      64.642      44.944    
  30.147      21.876      16.712      13.936      13.343      14.693      17.989      23.350      30.642      39.266    
  48.348      55.674      58.526      55.674      48.348      39.266      30.642      23.350      17.989      14.693    
  13.343      13.936      16.712      21.876      30.147      44.944      64.642      81.930      207.80      191.81    
  150.31      99.416      56.623      31.694      21.876      17.704      16.997      19.426      25.027      34.031    
  46.867      64.324      84.033      100.17      106.46      100.17      84.033      64.324      46.867      34.031    
  25.027      19.426      16.997      17.704      21.876      31.694      56.623      99.416      150.31      191.81    
  406.46      378.01      302.48      205.19      116.13      56.623      30.147      22.915      21.791      25.449    
  33.958      48.211      71.393      104.13      140.77      170.35      181.78      170.35      140.77      104.13    
  71.393      48.211      33.958      25.449      21.791      22.915      30.147      56.623      116.13      205.19    
  302.48      378.01      654.74      612.94      500.19      350.17      205.19      99.416      44.944      28.962    
  27.243      32.173      43.957      65.952      103.22      155.12      212.04      257.26      274.58      257.26    
  212.04      155.12      103.22      65.952      43.957      32.173      27.243      28.962      44.944      99.416    
  205.19      350.17      500.19      612.94      896.44      843.13      697.81      500.19      302.48      150.31    
  64.642      35.369      32.429      38.496      53.794      84.317      135.81      206.15      281.92      341.40    
  364.05      341.40      281.92      206.15      135.81      84.317      53.794      38.496      32.429      35.369    
  64.642      150.31      302.48      500.19      697.81      843.13      1071.1      1010.2      843.13      612.94    
  378.01      191.81      81.930      40.911      36.198      43.059      61.246      98.332      160.25      243.67    
  332.52      401.74      428.00      401.74      332.52      243.67      160.25      98.332      61.246      43.059    
  36.198      40.911      81.930      191.81      378.01      612.94      843.13      1010.2      952.24      896.44    
  744.01      535.82      326.15      163.15      69.897      37.046      33.629      39.947      56.131      88.714    
  143.52      218.06      298.05      360.69      384.51      360.69      298.05      218.06      143.52      88.714    
  56.131      39.947      33.629      37.046      69.897      163.15      326.15      535.82      744.01      896.44    
  896.44      843.13      697.81      500.19      302.48      150.31      64.642      35.369      32.429      38.496    
  53.794      84.317      135.81      206.15      281.92      341.40      364.05      341.40      281.92      206.15    
  135.81      84.317      53.794      38.496      32.429      35.369      64.642      150.31      302.48      500.19    
  697.81      843.13      744.01      697.81      572.68      404.71      240.07      117.25      51.609      31.179    
  29.157      34.524      47.558      72.630      115.13      173.91      237.91      288.52      307.86      288.52    
  237.91      173.91      115.13      72.630      47.558      34.524      29.157      31.179      51.609      117.25    
  240.07      404.71      572.68      697.81      535.82      500.19      404.71      279.37      160.90      77.496    
  37.075      26.035      24.644      29.012      39.249      57.410      87.884      130.69      178.07      215.97    
  230.55      215.97      178.07      130.69      87.884      57.410      39.249      29.012      24.644      26.035    
  37.075      77.496      160.90      279.37      404.71      500.19      326.15      302.48      240.07      160.90    
  90.312      45.168      26.361      20.770      19.884      23.133      30.580      42.703      61.637      88.270    
  118.26      142.61      152.04      142.61      118.26      88.270      61.637      42.703      30.580      23.133    
  19.884      20.770      26.361      45.168      90.312      160.90      240.07      302.48      163.15      150.31    
  117.25      77.496      45.168      27.215      19.787      16.221      15.673      17.839      22.753      30.623    
  41.475      55.699      71.632      84.690      89.784      84.690      71.632      55.699      41.475      30.623    
  22.753      17.839      15.673      16.221      19.787      27.215      45.168      77.496      117.25      150.31    
  69.897      64.642      51.609      37.075      26.361      19.787      15.310      12.924      12.437      13.644    
  16.553      21.259      27.642      35.079      42.605      48.566      50.873      48.566      42.605      35.079    
  27.642      21.259      16.553      13.644      12.437      12.924      15.310      19.787      26.361      37.075    
  51.609      64.642      37.046      35.369      31.179      26.035      20.770      16.221      12.924      10.981    
  10.266      10.655      12.119      14.662      18.166      22.246      26.193      29.097      30.171      29.097    
  26.193      22.246      18.166      14.662      12.119      10.655      10.266      10.981      12.924      16.221    
  20.770      26.035      31.179      35.369      33.629      32.429      29.157      24.644      19.884      15.673    
  12.437      10.266      9.0726      8.7414      9.1922      10.356      12.106      14.188      16.205      17.683    
  18.228      17.683      16.205      14.188      12.106      10.356      9.1922      8.7414      9.0726      10.266    
  12.437      15.673      19.884      24.644      29.157      32.429      39.947      38.496      34.524      29.012    
  23.133      17.839      13.644      10.655      8.7414      7.7133      7.4062      7.6823      8.3932      9.3479    
  10.307      11.018      11.280      11.018      10.307      9.3479      8.3932      7.6823      7.4062      7.7133    
  8.7414      10.655      13.644      17.839      23.133      29.012      34.524      38.496      56.131      53.794    
  47.558      39.249      30.580      22.753      16.553      12.119      9.1922      7.4062      6.4562      6.1132    
  6.1878      6.5057      6.9010      7.2192      7.3407      7.2192      6.9010      6.5057      6.1878      6.1132    
  6.4562      7.4062      9.1922      12.119      16.553      22.753      30.580      39.249      47.558      53.794    
  88.714      84.317      72.630      57.410      42.703      30.623      21.259      14.662      10.356      7.6823    
  6.1132      5.2860      4.9379      4.8766      4.9646      5.0861      5.1410      5.0861      4.9646      4.8766    
  4.9379      5.2860      6.1132      7.6823      10.356      14.662      21.259      30.623      42.703      57.410    
  72.630      84.317      143.52      135.81      115.13      87.884      61.637      41.475      27.642      18.166    