unknown system                          
   1.00000000000000     
     3.886808    0.000000    0.000000
     0.000000    3.886808    0.000000
     0.000000    0.000000    3.886808
   Sr   Fe   O 
     1     1     3
Direct
  0.500000  0.500000  0.500000
  0.000000  0.000000  0.000000
  0.500000  0.000000  0.000000
  0.000000  0.500000  0.000000
  0.000000  0.000000  0.500000
 
   32   32   32
 0.12007857618E+04 0.11346175745E+04 0.95223628100E+03 0.69874821599E+03 0.43664334480E+03
 0.22496161284E+03 0.96345435756E+02 0.45641349580E+02 0.39031277548E+02 0.46486576557E+02
 0.67014120339E+02 0.10913584691E+03 0.17882274291E+03 0.27178504206E+03 0.37004314273E+03
 0.44619149632E+03 0.47499786369E+03 0.44619149632E+03 0.37004314273E+03 0.27178504206E+03
 0.17882274291E+03 0.10913584691E+03 0.67014120339E+02 0.46486576557E+02 0.39031277548E+02
 0.45641349580E+02 0.96345435756E+02 0.22496161284E+03 0.43664334480E+03 0.69874821599E+03
 0.95223628100E+03 0.11346175745E+04 0.11346175745E+04 0.10711045561E+04 0.89643958023E+03
 0.65474454731E+03 0.40646315407E+03 0.20780402479E+03 0.88824170983E+02 0.43158738659E+02
 0.37580965711E+02 0.44730602104E+02 0.64043619336E+02 0.10357925990E+03 0.16930075099E+03
 0.25741013899E+03 0.35090300440E+03 0.42354902350E+03 0.45106672294E+03 0.42354902350E+03
 0.35090300440E+03 0.25741013899E+03 0.16930075099E+03 0.10357925990E+03 0.64043619336E+02
 0.44730602104E+02 0.37580965711E+02 0.43158738659E+02 0.88824170983E+02 0.20780402479E+03
 0.40646315407E+03 0.65474454731E+03 0.89643958023E+03 0.10711045561E+04 0.95223628100E+03
 0.89643958023E+03 0.74401177534E+03 0.53582455583E+03 0.32615088232E+03 0.16315452915E+03
 0.69896826893E+02 0.37045965125E+02 0.33628837245E+02 0.39947441218E+02 0.56131286042E+02
 0.88713833890E+02 0.14352353114E+03 0.21805715297E+03 0.29805181005E+03 0.36068901936E+03
 0.38450687876E+03 0.36068901936E+03 0.29805181005E+03 0.21805715297E+03 0.14352353114E+03
 0.88713833890E+02 0.56131286042E+02 0.39947441218E+02 0.33628837245E+02 0.37045965125E+02
 0.69896826893E+02 0.16315452915E+03 0.32615088232E+03 0.53582455583E+03 0.74401177534E+03
 0.89643958023E+03 0.69874821599E+03 0.65474454731E+03 0.53582455583E+03 0.37689587692E+03
 0.22221071349E+03 0.10807674623E+03 0.48170171425E+02 0.30063624705E+02 0.28193669370E+02
 0.33326335675E+02 0.45704832379E+02 0.69179163038E+02 0.10898753462E+03 0.16425134176E+03
 0.22464103351E+03 0.27251288654E+03 0.29082870338E+03 0.27251288654E+03 0.22464103351E+03
 0.16425134176E+03 0.10898753462E+03 0.69179163038E+02 0.45704832379E+02 0.33326335675E+02
 0.28193669370E+02 0.30063624705E+02 0.48170171425E+02 0.10807674623E+03 0.22221071349E+03
 0.37689587692E+03 0.53582455583E+03 0.65474454731E+03 0.43664334480E+03 0.40646315407E+03
 0.32615088232E+03 0.22221071349E+03 0.12626672471E+03 0.61268716089E+02 0.31699020934E+02
 0.23699458192E+02 0.22486546711E+02 0.26291824022E+02 0.35187088374E+02 0.50283024475E+02
 0.75096872383E+02 0.11012731487E+03 0.14924969727E+03 0.18076675584E+03 0.19292493152E+03
 0.18076675584E+03 0.14924969727E+03 0.11012731487E+03 0.75096872383E+02 0.50283024475E+02
 0.35187088374E+02 0.26291824022E+02 0.22486546711E+02 0.23699458192E+02 0.31699020934E+02
 0.61268716089E+02 0.12626672471E+03 0.22221071349E+03 0.32615088232E+03 0.40646315407E+03
 0.22496161284E+03 0.20780402479E+03 0.16315452915E+03 0.10807674623E+03 0.61268716089E+02
 0.33547990990E+02 0.22640649619E+02 0.18245249508E+02 0.17476742210E+02 0.20001300301E+02
 0.25852747467E+02 0.35273669509E+02 0.48903909206E+02 0.67615950152E+02 0.88766471296E+02
 0.10607397653E+03 0.11281126766E+03 0.10607397653E+03 0.88766471296E+02 0.67615950152E+02
 0.48903909206E+02 0.35273669509E+02 0.25852747467E+02 0.20001300301E+02 0.17476742210E+02
 0.18245249508E+02 0.22640649619E+02 0.33547990990E+02 0.61268716089E+02 0.10807674623E+03
 0.16315452915E+03 0.20780402479E+03 0.96345435756E+02 0.88824170983E+02 0.69896826893E+02
 0.48170171425E+02 0.31699020934E+02 0.22640649619E+02 0.17223239240E+02 0.14302923065E+02
 0.13668799602E+02 0.15069749395E+02 0.18508120817E+02 0.24108243115E+02 0.31733406478E+02
 0.40833032050E+02 0.50535539837E+02 0.58396567398E+02 0.61459873891E+02 0.58396567398E+02
 0.50535539837E+02 0.40833032050E+02 0.31733406478E+02 0.24108243115E+02 0.18508120817E+02
 0.15069749395E+02 0.13668799602E+02 0.14302923065E+02 0.17223239240E+02 0.22640649619E+02
 0.31699020934E+02 0.48170171425E+02 0.69896826893E+02 0.88824170983E+02 0.45641349580E+02
 0.43158738659E+02 0.37045965125E+02 0.30063624705E+02 0.23699458192E+02 0.18245249508E+02
 0.14302923065E+02 0.11992977278E+02 0.11147736302E+02 0.11601961948E+02 0.13318449147E+02
 0.16310903920E+02 0.20455136234E+02 0.25302617619E+02 0.30008255884E+02 0.33484220977E+02
 0.34779785791E+02 0.33484220977E+02 0.30008255884E+02 0.25302617619E+02 0.20455136234E+02
 0.16310903920E+02 0.13318449147E+02 0.11601961948E+02 0.11147736302E+02 0.11992977278E+02
 0.14302923065E+02 0.18245249508E+02 0.23699458192E+02 0.30063624705E+02 0.37045965125E+02
 0.43158738659E+02 0.39031277548E+02 0.37580965711E+02 0.33628837245E+02 0.28193669370E+02
 0.22486546711E+02 0.17476742210E+02 0.13668799602E+02 0.11147736302E+02 0.97814025206E+01
 0.94127856777E+01 0.99411530910E+01 0.11291605134E+02 0.13326584405E+02 0.15759117123E+02
 0.18125597759E+02 0.19866153854E+02 0.20508430550E+02 0.19866153854E+02 0.18125597759E+02
 0.15759117123E+02 0.13326584405E+02 0.11291605134E+02 0.99411530910E+01 0.94127856777E+01
 0.97814025206E+01 0.11147736302E+02 0.13668799602E+02 0.17476742210E+02 0.22486546711E+02
 0.28193669370E+02 0.33628837245E+02 0.37580965711E+02 0.46486576557E+02 0.44730602104E+02
 0.39947441218E+02 0.33326335675E+02 0.26291824022E+02 0.20001300301E+02 0.15069749395E+02
 0.11601961948E+02 0.94127856777E+01 0.82503048860E+01 0.79072211570E+01 0.82212383293E+01
 0.90265330086E+01 0.10110661763E+02 0.11204435072E+02 0.12017980318E+02 0.12319091432E+02
 0.12017980318E+02 0.11204435072E+02 0.10110661763E+02 0.90265330086E+01 0.82212383293E+01
 0.79072211570E+01 0.82503048860E+01 0.94127856777E+01 0.11601961948E+02 0.15069749395E+02
 0.20001300301E+02 0.26291824022E+02 0.33326335675E+02 0.39947441218E+02 0.44730602104E+02
 0.67014120339E+02 0.64043619336E+02 0.56131286042E+02 0.45704832379E+02 0.35187088374E+02
 0.25852747467E+02 0.18508120817E+02 0.13318449147E+02 0.99411530910E+01 0.79072211570E+01
 0.68331889129E+01 0.64415614234E+01 0.65119167000E+01 0.68503247140E+01 0.72775201620E+01
 0.76252527486E+01 0.77589972168E+01 0.76252527486E+01 0.72775201620E+01 0.68503247140E+01
 0.65119167000E+01 0.64415614234E+01 0.68331889129E+01 0.79072211570E+01 0.99411530910E+01
 0.13318449147E+02 0.18508120817E+02 0.25852747467E+02 0.35187088374E+02 0.45704832379E+02
 0.56131286042E+02 0.64043619336E+02 0.10913584691E+03 0.10357925990E+03 0.88713833890E+02
 0.69179163038E+02 0.50283024475E+02 0.35273669509E+02 0.24108243115E+02 0.16310903920E+02
 0.11291605134E+02 0.82212383293E+01 0.64415614234E+01 0.55073187666E+01 0.51032705443E+01
 0.50102769933E+01 0.50843952534E+01 0.52059913315E+01 0.52633520684E+01 0.52059913315E+01
 0.50843952534E+01 0.50102769933E+01 0.51032705443E+01 0.55073187666E+01 0.64415614234E+01
 0.82212383293E+01 0.11291605134E+02 0.16310903920E+02 0.24108243115E+02 0.35273669509E+02
 0.50283024475E+02 0.69179163038E+02 0.88713833890E+02 0.10357925990E+03 0.17882274291E+03
 0.16930075099E+03 0.14352353114E+03 0.10898753462E+03 0.75096872383E+02 0.48903909206E+02
 0.31733406478E+02 0.20455136234E+02 0.13326584405E+02 0.90265330086E+01 0.65119167000E+01
 0.51032705443E+01 0.43431387655E+01 0.39532949053E+01 0.38040691145E+01 0.38000958552E+01
 0.38201256639E+01 0.38000958552E+01 0.38040691145E+01 0.39532949053E+01 0.43431387655E+01
 0.51032705443E+01 0.65119167000E+01 0.90265330086E+01 0.13326584405E+02 0.20455136234E+02
 0.31733406478E+02 0.48903909206E+02 0.75096872383E+02 0.10898753462E+03 0.14352353114E+03
 0.16930075099E+03 0.27178504206E+03 0.25741013899E+03 0.21805715297E+03 0.16425134176E+03
 0.11012731487E+03 0.67615950152E+02 0.40833032050E+02 0.25302617619E+02 0.15759117123E+02
 0.10110661763E+02 0.68503247140E+01 0.50102769933E+01 0.39532949053E+01 0.33206178508E+01
 0.29927208954E+01 0.28969975585E+01 0.28931726679E+01 0.28969975585E+01 0.29927208954E+01
 0.33206178508E+01 0.39532949053E+01 0.50102769933E+01 0.68503247140E+01 0.10110661763E+02
 0.15759117123E+02 0.25302617619E+02 0.40833032050E+02 0.67615950152E+02 0.11012731487E+03
 0.16425134176E+03 0.21805715297E+03 0.25741013899E+03 0.37004314273E+03 0.35090300440E+03
 0.29805181005E+03 0.22464103351E+03 0.14924969727E+03 0.88766471296E+02 0.50535539837E+02
 0.30008255884E+02 0.18125597759E+02 0.11204435072E+02 0.72775201620E+01 0.50843952534E+01
 0.38040691145E+01 0.29927208954E+01 0.25365785090E+01 0.23818556056E+01 0.23656435846E+01
 0.23818556056E+01 0.25365785090E+01 0.29927208954E+01 0.38040691145E+01 0.50843952534E+01
 0.72775201620E+01 0.11204435072E+02 0.18125597759E+02 0.30008255884E+02 0.50535539837E+02
 0.88766471296E+02 0.14924969727E+03 0.22464103351E+03 0.29805181005E+03 0.35090300440E+03
 0.44619149632E+03 0.42354902350E+03 0.36068901936E+03 0.27251288654E+03 0.18076675584E+03
 0.10607397653E+03 0.58396567398E+02 0.33484220977E+02 0.19866153854E+02 0.12017980318E+02
 0.76252527486E+01 0.52059913315E+01 0.38000958552E+01 0.28969975585E+01 0.23818556056E+01
 0.22086906184E+01 0.21924645501E+01 0.22086906184E+01 0.23818556056E+01 0.28969975585E+01
 0.38000958552E+01 0.52059913315E+01 0.76252527486E+01 0.12017980318E+02 0.19866153854E+02
 0.33484220977E+02 0.58396567398E+02 0.10607397653E+03 0.18076675584E+03 0.27251288654E+03
 0.36068901936E+03 0.42354902350E+03 0.47499786369E+03 0.45106672294E+03 0.38450687876E+03
 0.29082870338E+03 0.19292493152E+03 0.11281126766E+03 0.61459873891E+02 0.34779785791E+02
 0.20508430550E+02 0.12319091432E+02 0.77589972168E+01 0.52633520684E+01 0.38201256639E+01
 0.28931726679E+01 0.23656435846E+01 0.21924645501E+01 0.21787267167E+01 0.21924645501E+01
 0.23656435846E+01 0.28931726679E+01 0.38201256639E+01 0.52633520684E+01 0.77589972168E+01
 0.12319091432E+02 0.20508430550E+02 0.34779785791E+02 0.61459873891E+02 0.11281126766E+03
 0.19292493152E+03 0.29082870338E+03 0.38450687876E+03 0.45106672294E+03 0.44619149632E+03
 0.42354902350E+03 0.36068901936E+03 0.27251288654E+03 0.18076675584E+03 0.10607397653E+03
 0.58396567398E+02 0.33484220977E+02 0.19866153854E+02 0.12017980318E+02 0.76252527486E+01
 0.52059913315E+01 0.38000958552E+01 0.28969975585E+01 0.23818556056E+01 0.22086906184E+01
 0.21924645501E+01 0.22086906184E+01 0.23818556056E+01 0.28969975585E+01 0.38000958552E+01
 0.52059913315E+01 0.76252527486E+01 0.12017980318E+02 0.19866153854E+02 0.33484220977E+02
 0.58396567398E+02 0.10607397653E+03 0.18076675584E+03 0.27251288654E+03 0.36068901936E+03
 0.42354902350E+03 0.37004314273E+03 0.35090300440E+03 0.29805181005E+03 0.22464103351E+03
 0.14924969727E+03 0.88766471296E+02 0.50535539837E+02 0.30008255884E+02 0.18125597759E+02
 0.11204435072E+02 0.72775201620E+01 0.50843952534E+01 0.38040691145E+01 0.29927208954E+01
 0.25365785090E+01 0.23818556056E+01 0.23656435846E+01 0.23818556056E+01 0.25365785090E+01
 0.29927208954E+01 0.38040691145E+01 0.50843952534E+01 0.72775201620E+01 0.11204435072E+02
 0.18125597759E+02 0.30008255884E+02 0.50535539837E+02 0.88766471296E+02 0.14924969727E+03
 0.22464103351E+03 0.29805181005E+03 0.35090300440E+03 0.27178504206E+03 0.25741013899E+03
 0.21805715297E+03 0.16425134176E+03 0.11012731487E+03 0.67615950152E+02 0.40833032050E+02
 0.25302617619E+02 0.15759117123E+02 0.10110661763E+02 0.68503247140E+01 0.50102769933E+01
 0.39532949053E+01 0.33206178508E+01 0.29927208954E+01 0.28969975585E+01 0.28931726679E+01
 0.28969975585E+01 0.29927208954E+01 0.33206178508E+01 0.39532949053E+01 0.50102769933E+01
 0.68503247140E+01 0.10110661763E+02 0.15759117123E+02 0.25302617619E+02 0.40833032050E+02
 0.67615950152E+02 0.11012731487E+03 0.16425134176E+03 0.21805715297E+03 0.25741013899E+03
 0.17882274291E+03 0.16930075099E+03 0.14352353114E+03 0.10898753462E+03 0.75096872383E+02
 0.48903909206E+02 0.31733406478E+02 0.20455136234E+02 0.13326584405E+02 0.90265330086E+01
 0.65119167000E+01 0.51032705443E+01 0.43431387655E+01 0.39532949053E+01 0.38040691145E+01
 0.38000958552E+01 0.38201256639E+01 0.38000958552E+01 0.38040691145E+01 0.39532949053E+01
 0.43431387655E+01 0.51032705443E+01 0.65119167000E+01 0.90265330086E+01 0.13326584405E+02
 0.20455136234E+02 0.31733406478E+02 0.48903909206E+02 0.75096872383E+02 0.10898753462E+03
 0.14352353114E+03 0.16930075099E+03 0.10913584691E+03 0.10357925990E+03 0.88713833890E+02
 0.69179163038E+02 0.50283024475E+02 0.35273669509E+02 0.24108243115E+02 0.16310903920E+02
 0.11291605134E+02 0.82212383293E+01 0.64415614234E+01 0.55073187666E+01 0.51032705443E+01
 0.50102769933E+01 0.50843952534E+01 0.52059913315E+01 0.52633520684E+01 0.52059913315E+01
 0.50843952534E+01 0.50102769933E+01 0.51032705443E+01 0.55073187666E+01 0.64415614234E+01
 0.82212383293E+01 0.11291605134E+02 0.16310903920E+02 0.24108243115E+02 0.35273669509E+02
 0.50283024475E+02 0.69179163038E+02 0.88713833890E+02 0.10357925990E+03 0.67014120339E+02
 0.64043619336E+02 0.56131286042E+02 0.45704832379E+02 0.35187088374E+02 0.25852747467E+02
 0.18508120817E+02 0.13318449147E+02 0.99411530910E+01 0.79072211570E+01 0.68331889129E+01
 0.64415614234E+01 0.65119167000E+01 0.68503247140E+01 0.72775201620E+01 0.76252527486E+01
 0.77589972168E+01 0.76252527486E+01 0.72775201620E+01 0.68503247140E+01 0.65119167000E+01
 0.64415614234E+01 0.68331889129E+01 0.79072211570E+01 0.99411530910E+01 0.13318449147E+02
 0.18508120817E+02 0.25852747467E+02 0.35187088374E+02 0.45704832379E+02 0.56131286042E+02
 0.64043619336E+02 0.46486576557E+02 0.44730602104E+02 0.39947441218E+02 0.33326335675E+02
 0.26291824022E+02 0.20001300301E+02 0.15069749395E+02 0.11601961948E+02 0.94127856777E+01
 0.82503048860E+01 0.79072211570E+01 0.82212383293E+01 0.90265330086E+01 0.10110661763E+02
 0.11204435072E+02 0.12017980318E+02 0.12319091432E+02 0.12017980318E+02 0.11204435072E+02
 0.10110661763E+02 0.90265330086E+01 0.82212383293E+01 0.79072211570E+01 0.82503048860E+01
 0.94127856777E+01 0.11601961948E+02 0.15069749395E+02 0.20001300301E+02 0.26291824022E+02
 0.33326335675E+02 0.39947441218E+02 0.44730602104E+02 0.39031277548E+02 0.37580965711E+02
 0.33628837245E+02 0.28193669370E+02 0.22486546711E+02 0.17476742210E+02 0.13668799602E+02
 0.11147736302E+02 0.97814025206E+01 0.94127856777E+01 0.99411530910E+01 0.11291605134E+02
 0.13326584405E+02 0.15759117123E+02 0.18125597759E+02 0.19866153854E+02 0.20508430550E+02
 0.19866153854E+02 0.18125597759E+02 0.15759117123E+02 0.13326584405E+02 0.11291605134E+02
 0.99411530910E+01 0.94127856777E+01 0.97814025206E+01 0.11147736302E+02 0.13668799602E+02
 0.17476742210E+02 0.22486546711E+02 0.28193669370E+02 0.33628837245E+02 0.37580965711E+02
 0.45641349580E+02 0.43158738659E+02 0.37045965125E+02 0.30063624705E+02 0.23699458192E+02
 0.18245249508E+02 0.14302923065E+02 0.11992977278E+02 0.11147736302E+02 0.11601961948E+02
 0.13318449147E+02 0.16310903920E+02 0.20455136234E+02 0.25302617619E+02 0.30008255884E+02
 0.33484220977E+02 0.34779785791E+02 0.33484220977E+02 0.30008255884E+02 0.25302617619E+02
 0.20455136234E+02 0.16310903920E+02 0.13318449147E+02 0.11601961948E+02 0.11147736302E+02
 0.11992977278E+02 0.14302923065E+02 0.18245249508E+02 0.23699458192E+02 0.30063624705E+02
 0.37045965125E+02 0.43158738659E+02 0.96345435756E+02 0.88824170983E+02 0.69896826893E+02
 0.48170171425E+02 0.31699020934E+02 0.22640649619E+02 0.17223239240E+02 0.14302923065E+02
 0.13668799602E+02 0.15069749395E+02 0.18508120817E+02 0.24108243115E+02 0.31733406478E+02
 0.40833032050E+02 0.50535539837E+02 0.58396567398E+02 0.61459873891E+02 0.58396567398E+02
 0.50535539837E+02 0.40833032050E+02 0.31733406478E+02 0.24108243115E+02 0.18508120817E+02
 0.15069749395E+02 0.13668799602E+02 0.14302923065E+02 0.17223239240E+02 0.22640649619E+02
 0.31699020934E+02 0.48170171425E+02 0.69896826893E+02 0.88824170983E+02 0.22496161284E+03
 0.20780402479E+03 0.16315452915E+03 0.10807674623E+03 0.61268716089E+02 0.33547990990E+02
 0.22640649619E+02 0.18245249508E+02 0.17476742210E+02 0.20001300301E+02 0.25852747467E+02
 0.35273669509E+02 0.48903909206E+02 0.67615950152E+02 0.88766471296E+02 0.10607397653E+03
 0.11281126766E+03 0.10607397653E+03 0.88766471296E+02 0.67615950152E+02 0.48903909206E+02
 0.35273669509E+02 0.25852747467E+02 0.20001300301E+02 0.17476742210E+02 0.18245249508E+02
 0.22640649619E+02 0.33547990990E+02 0.61268716089E+02 0.10807674623E+03 0.16315452915E+03
 0.20780402479E+03 0.43664334480E+03 0.40646315407E+03 0.32615088232E+03 0.22221071349E+03
 0.12626672471E+03 0.61268716089E+02 0.31699020934E+02 0.23699458192E+02 0.22486546711E+02
 0.26291824022E+02 0.35187088374E+02 0.50283024475E+02 0.75096872383E+02 0.11012731487E+03
 0.14924969727E+03 0.18076675584E+03 0.19292493152E+03 0.18076675584E+03 0.14924969727E+03
 0.11012731487E+03 0.75096872383E+02 0.50283024475E+02 0.35187088374E+02 0.26291824022E+02
 0.22486546711E+02 0.23699458192E+02 0.31699020934E+02 0.61268716089E+02 0.12626672471E+03
 0.22221071349E+03 0.32615088232E+03 0.40646315407E+03 0.69874821599E+03 0.65474454731E+03
 0.53582455583E+03 0.37689587692E+03 0.22221071349E+03 0.10807674623E+03 0.48170171425E+02
 0.30063624705E+02 0.28193669370E+02 0.33326335675E+02 0.45704832379E+02 0.69179163038E+02
 0.10898753462E+03 0.16425134176E+03 0.22464103351E+03 0.27251288654E+03 0.29082870338E+03
 0.27251288654E+03 0.22464103351E+03 0.16425134176E+03 0.10898753462E+03 0.69179163038E+02
 0.45704832379E+02 0.33326335675E+02 0.28193669370E+02 0.30063624705E+02 0.48170171425E+02
 0.10807674623E+03 0.22221071349E+03 0.37689587692E+03 0.53582455583E+03 0.65474454731E+03
 0.95223628100E+03 0.89643958023E+03 0.74401177534E+03 0.53582455583E+03 0.32615088232E+03
 0.16315452915E+03 0.69896826893E+02 0.37045965125E+02 0.33628837245E+02 0.39947441218E+02
 0.56131286042E+02 0.88713833890E+02 0.14352353114E+03 0.21805715297E+03 0.29805181005E+03
 0.36068901936E+03 0.38450687876E+03 0.36068901936E+03 0.29805181005E+03 0.21805715297E+03
 0.14352353114E+03 0.88713833890E+02 0.56131286042E+02 0.39947441218E+02 0.33628837245E+02
 0.37045965125E+02 0.69896826893E+02 0.16315452915E+03 0.32615088232E+03 0.53582455583E+03
 0.74401177534E+03 0.89643958023E+03 0.11346175745E+04 0.10711045561E+04 0.89643958023E+03
 0.65474454731E+03 0.40646315407E+03 0.20780402479E+03 0.88824170983E+02 0.43158738659E+02
 0.37580965711E+02 0.44730602104E+02 0.64043619336E+02 0.10357925990E+03 0.16930075099E+03
 0.25741013899E+03 0.35090300440E+03 0.42354902350E+03 0.45106672294E+03 0.42354902350E+03
 0.35090300440E+03 0.25741013899E+03 0.16930075099E+03 0.10357925990E+03 0.64043619336E+02
 0.44730602104E+02 0.37580965711E+02 0.43158738659E+02 0.88824170983E+02 0.20780402479E+03
 0.40646315407E+03 0.65474454731E+03 0.89643958023E+03 0.10711045561E+04 0.11346175745E+04
 0.10711045561E+04 0.89643958023E+03 0.65474454731E+03 0.40646315407E+03 0.20780402479E+03
 0.88824170983E+02 0.43158738659E+02 0.37580965711E+02 0.44730602104E+02 0.64043619336E+02
 0.10357925990E+03 0.16930075099E+03 0.25741013899E+03 0.35090300440E+03 0.42354902350E+03
 0.45106672294E+03 0.42354902350E+03 0.35090300440E+03 0.25741013899E+03 0.16930075099E+03
 0.10357925990E+03 0.64043619336E+02 0.44730602104E+02 0.37580965711E+02 0.43158738659E+02
 0.88824170983E+02 0.20780402479E+03 0.40646315407E+03 0.65474454731E+03 0.89643958023E+03
 0.10711045561E+04 0.10711045561E+04 0.10102124118E+04 0.84312966824E+03 0.61293526061E+03
 0.37801272214E+03 0.19181075255E+03 0.81930112527E+02 0.40911029827E+02 0.36198176168E+02
 0.43059345188E+02 0.61246197106E+02 0.98331506941E+02 0.16025085897E+03 0.24366705385E+03
 0.33252098816E+03 0.40174142121E+03 0.42799554918E+03 0.40174142121E+03 0.33252098816E+03
 0.24366705385E+03 0.16025085897E+03 0.98331506941E+02 0.61246197106E+02 0.43059345188E+02
 0.36198176168E+02 0.40911029827E+02 0.81930112527E+02 0.19181075255E+03 0.37801272214E+03
 0.61293526061E+03 0.84312966824E+03 0.10102124118E+04 0.89643958023E+03 0.84312966824E+03
 0.69781073173E+03 0.50018762028E+03 0.30247649359E+03 0.15030588168E+03 0.64642487254E+02
 0.35368522605E+02 0.32429170344E+02 0.38495698747E+02 0.53794447631E+02 0.84317349745E+02
 0.13581263752E+03 0.20615170444E+03 0.28192302945E+03 0.34140138877E+03 0.36404628542E+03
 0.34140138877E+03 0.28192302945E+03 0.20615170444E+03 0.13581263752E+03 0.84317349745E+02
 0.53794447631E+02 0.38495698747E+02 0.32429170344E+02 0.35368522605E+02 0.64642487254E+02
 0.15030588168E+03 0.30247649359E+03 0.50018762028E+03 0.69781073173E+03 0.84312966824E+03
 0.65474454731E+03 0.61293526061E+03 0.50018762028E+03 0.35016926544E+03 0.20519167131E+03
 0.99415638167E+02 0.44943688014E+02 0.28961749803E+02 0.27242887998E+02 0.32172739034E+02
 0.43957292957E+02 0.65952063405E+02 0.10321555486E+03 0.15512269270E+03 0.21203525713E+03
 0.25725732950E+03 0.27457990205E+03 0.25725732950E+03 0.21203525713E+03 0.15512269270E+03
 0.10321555486E+03 0.65952063405E+02 0.43957292957E+02 0.32172739034E+02 0.27242887998E+02
 0.28961749803E+02 0.44943688014E+02 0.99415638167E+02 0.20519167131E+03 0.35016926544E+03
 0.50018762028E+03 0.61293526061E+03 0.40646315407E+03 0.37801272214E+03 0.30247649359E+03
 0.20519167131E+03 0.11613175389E+03 0.56622583865E+02 0.30147431592E+02 0.22914904441E+02
 0.21791149339E+02 0.25449013191E+02 0.33957843349E+02 0.48211468752E+02 0.71392930180E+02
 0.10412650814E+03 0.14077213664E+03 0.17035477625E+03 0.18177918692E+03 0.17035477625E+03
 0.14077213664E+03 0.10412650814E+03 0.71392930180E+02 0.48211468752E+02 0.33957843349E+02
 0.25449013191E+02 0.21791149339E+02 0.22914904441E+02 0.30147431592E+02 0.56622583865E+02
 0.11613175389E+03 0.20519167131E+03 0.30247649359E+03 0.37801272214E+03 0.20780402479E+03
 0.19181075255E+03 0.15030588168E+03 0.99415638167E+02 0.56622583865E+02 0.31693896570E+02
 0.21876464250E+02 0.17704384031E+02 0.16996803742E+02 0.19426456894E+02 0.25027154542E+02
 0.34031206008E+02 0.46867238446E+02 0.64324285387E+02 0.84033294561E+02 0.10017426396E+03
 0.10646178895E+03 0.10017426396E+03 0.84033294561E+02 0.64324285387E+02 0.46867238446E+02
 0.34031206008E+02 0.25027154542E+02 0.19426456894E+02 0.16996803742E+02 0.17704384031E+02
 0.21876464250E+02 0.31693896570E+02 0.56622583865E+02 0.99415638167E+02 0.15030588168E+03
 0.19181075255E+03 0.88824170983E+02 0.81930112527E+02 0.64642487254E+02 0.44943688014E+02
 0.30147431592E+02 0.21876464250E+02 0.16711640804E+02 0.13936462446E+02 0.13342992934E+02
 0.14692794409E+02 0.17989241258E+02 0.23349595407E+02 0.30641855338E+02 0.39265982840E+02
 0.48348384191E+02 0.55674326805E+02 0.58525538397E+02 0.55674326805E+02 0.48348384191E+02
 0.39265982840E+02 0.30641855338E+02 0.23349595407E+02 0.17989241258E+02 0.14692794409E+02
 0.13342992934E+02 0.13936462446E+02 0.16711640804E+02 0.21876464250E+02 0.30147431592E+02
 0.44943688014E+02 0.64642487254E+02 0.81930112527E+02 0.43158738659E+02 0.40911029827E+02
 0.35368522605E+02 0.28961749803E+02 0.22914904441E+02 0.17704384031E+02 0.13936462446E+02
 0.11725843463E+02 0.10916028485E+02 0.11352992972E+02 0.13001935053E+02 0.15873611106E+02
 0.19845848884E+02 0.24487178590E+02 0.28988893351E+02 0.32309028119E+02 0.33540540872E+02
 0.32309028119E+02 0.28988893351E+02 0.24487178590E+02 0.19845848884E+02 0.15873611106E+02
 0.13001935053E+02 0.11352992972E+02 0.10916028485E+02 0.11725843463E+02 0.13936462446E+02
 0.17704384031E+02 0.22914904441E+02 0.28961749803E+02 0.35368522605E+02 0.40911029827E+02
 0.37580965711E+02 0.36198176168E+02 0.32429170344E+02 0.27242887998E+02 0.21791149339E+02
 0.16996803742E+02 0.13342992934E+02 0.10916028485E+02 0.95959402136E+01 0.92371118219E+01
 0.97444236986E+01 0.11044602370E+02 0.13002842362E+02 0.15341136033E+02 0.17613461140E+02
 0.19283349603E+02 0.19899266669E+02 0.19283349603E+02 0.17613461140E+02 0.15341136033E+02
 0.13002842362E+02 0.11044602370E+02 0.97444236986E+01 0.92371118219E+01 0.95959402136E+01
 0.10916028485E+02 0.13342992934E+02 0.16996803742E+02 0.21791149339E+02 0.27242887998E+02
 0.32429170344E+02 0.36198176168E+02 0.44730602104E+02 0.43059345188E+02 0.38495698747E+02
 0.32172739034E+02 0.25449013191E+02 0.19426456894E+02 0.14692794409E+02 0.11352992972E+02
 0.92371118219E+01 0.81099967534E+01 0.77759091566E+01 0.80791721275E+01 0.88587404003E+01
 0.99078427866E+01 0.10965294479E+02 0.11751082819E+02 0.12041752302E+02 0.11751082819E+02
 0.10965294479E+02 0.99078427866E+01 0.88587404003E+01 0.80791721275E+01 0.77759091566E+01
 0.81099967534E+01 0.92371118219E+01 0.11352992972E+02 0.14692794409E+02 0.19426456894E+02
 0.25449013191E+02 0.32172739034E+02 0.38495698747E+02 0.43059345188E+02 0.64043619336E+02
 0.61246197106E+02 0.53794447631E+02 0.43957292957E+02 0.33957843349E+02 0.25027154542E+02
 0.17989241258E+02 0.13001935053E+02 0.97444236986E+01 0.77759091566E+01 0.67340647177E+01
 0.63545320618E+01 0.64253002964E+01 0.67577635998E+01 0.71761319078E+01 0.75157785771E+01
 0.76461918360E+01 0.75157785771E+01 0.71761319078E+01 0.67577635998E+01 0.64253002964E+01
 0.63545320618E+01 0.67340647177E+01 0.77759091566E+01 0.97444236986E+01 0.13001935053E+02
 0.17989241258E+02 0.25027154542E+02 0.33957843349E+02 0.43957292957E+02 0.53794447631E+02
 0.61246197106E+02 0.10357925990E+03 0.98331506941E+02 0.84317349745E+02 0.65952063405E+02
 0.48211468752E+02 0.34031206008E+02 0.23349595407E+02 0.15873611106E+02 0.11044602370E+02
 0.80791721275E+01 0.63545320618E+01 0.54476523243E+01 0.50575390227E+01 0.49724045588E+01
 0.50498806017E+01 0.51712237123E+01 0.52278275664E+01 0.51712237123E+01 0.50498806017E+01
 0.49724045588E+01 0.50575390227E+01 0.54476523243E+01 0.63545320618E+01 0.80791721275E+01
 0.11044602370E+02 0.15873611106E+02 0.23349595407E+02 0.34031206008E+02 0.48211468752E+02
 0.65952063405E+02 0.84317349745E+02 0.98331506941E+02 0.16930075099E+03 0.16025085897E+03
 0.13581263752E+03 0.10321555486E+03 0.71392930180E+02 0.46867238446E+02 0.30641855338E+02
 0.19845848884E+02 0.13002842362E+02 0.88587404003E+01 0.64253002964E+01 0.50575390227E+01
 0.43203792049E+01 0.39467035273E+01 0.38075139458E+01 0.38066950268E+01 0.38267836561E+01
 0.38066950268E+01 0.38075139458E+01 0.39467035273E+01 0.43203792049E+01 0.50575390227E+01
 0.64253002964E+01 0.88587404003E+01 0.13002842362E+02 0.19845848884E+02 0.30641855338E+02
 0.46867238446E+02 0.71392930180E+02 0.10321555486E+03 0.13581263752E+03 0.16025085897E+03
 0.25741013899E+03 0.24366705385E+03 0.20615170444E+03 0.15512269270E+03 0.10412650814E+03
 0.64324285387E+02 0.39265982840E+02 0.24487178590E+02 0.15341136033E+02 0.99078427866E+01
 0.67577635998E+01 0.49724045588E+01 0.39467035273E+01 0.33376516440E+01 0.30256153319E+01
 0.29356183388E+01 0.29322841136E+01 0.29356183388E+01 0.30256153319E+01 0.33376516440E+01
 0.39467035273E+01 0.49724045588E+01 0.67577635998E+01 0.99078427866E+01 0.15341136033E+02
 0.24487178590E+02 0.39265982840E+02 0.64324285387E+02 0.10412650814E+03 0.15512269270E+03
 0.20615170444E+03 0.24366705385E+03 0.35090300440E+03 0.33252098816E+03 0.28192302945E+03
 0.21203525713E+03 0.14077213664E+03 0.84033294561E+02 0.48348384191E+02 0.28988893351E+02
 0.17613461140E+02 0.10965294479E+02 0.71761319078E+01 0.50498806017E+01 0.38075139458E+01
 0.30256153319E+01 0.25897259380E+01 0.24423334324E+01 0.24267053215E+01 0.24423334324E+01
 0.25897259380E+01 0.30256153319E+01 0.38075139458E+01 0.50498806017E+01 0.71761319078E+01
 0.10965294479E+02 0.17613461140E+02 0.28988893351E+02 0.48348384191E+02 0.84033294561E+02
 0.14077213664E+03 0.21203525713E+03 0.28192302945E+03 0.33252098816E+03 0.42354902350E+03
 0.40174142121E+03 0.34140138877E+03 0.25725732950E+03 0.17035477625E+03 0.10017426396E+03
 0.55674326805E+02 0.32309028119E+02 0.19283349603E+02 0.11751082819E+02 0.75157785771E+01
 0.51712237123E+01 0.38066950268E+01 0.29356183388E+01 0.24423334324E+01 0.22765017891E+01
 0.22604979762E+01 0.22765017891E+01 0.24423334324E+01 0.29356183388E+01 0.38066950268E+01
 0.51712237123E+01 0.75157785771E+01 0.11751082819E+02 0.19283349603E+02 0.32309028119E+02
 0.55674326805E+02 0.10017426396E+03 0.17035477625E+03 0.25725732950E+03 0.34140138877E+03
 0.40174142121E+03 0.45106672294E+03 0.42799554918E+03 0.36404628542E+03 0.27457990205E+03
 0.18177918692E+03 0.10646178895E+03 0.58525538397E+02 0.33540540872E+02 0.19899266669E+02
 0.12041752302E+02 0.76461918360E+01 0.52278275664E+01 0.38267836561E+01 0.29322841136E+01
 0.24267053215E+01 0.22604979762E+01 0.22467162124E+01 0.22604979762E+01 0.24267053215E+01
 0.29322841136E+01 0.38267836561E+01 0.52278275664E+01 0.76461918360E+01 0.12041752302E+02
 0.19899266669E+02 0.33540540872E+02 0.58525538397E+02 0.10646178895E+03 0.18177918692E+03
 0.27457990205E+03 0.36404628542E+03 0.42799554918E+03 0.42354902350E+03 0.40174142121E+03
 0.34140138877E+03 0.25725732950E+03 0.17035477625E+03 0.10017426396E+03 0.55674326805E+02
 0.32309028119E+02 0.19283349603E+02 0.11751082819E+02 0.75157785771E+01 0.51712237123E+01
 0.38066950268E+01 0.29356183388E+01 0.24423334324E+01 0.22765017891E+01 0.22604979762E+01
 0.22765017891E+01 0.24423334324E+01 0.29356183388E+01 0.38066950268E+01 0.51712237123E+01
 0.75157785771E+01 0.11751082819E+02 0.19283349603E+02 0.32309028119E+02 0.55674326805E+02
 0.10017426396E+03 0.17035477625E+03 0.25725732950E+03 0.34140138877E+03 0.40174142121E+03
 0.35090300440E+03 0.33252098816E+03 0.28192302945E+03 0.21203525713E+03 0.14077213664E+03
 0.84033294561E+02 0.48348384191E+02 0.28988893351E+02 0.17613461140E+02 0.10965294479E+02
 0.71761319078E+01 0.50498806017E+01 0.38075139458E+01 0.30256153319E+01 0.25897259380E+01
 0.24423334324E+01 0.24267053215E+01 0.24423334324E+01 0.25897259380E+01 0.30256153319E+01
 0.38075139458E+01 0.50498806017E+01 0.71761319078E+01 0.10965294479E+02 0.17613461140E+02