    5    5   99    2
  0.1174382E+02  0.3886808E-09  0.3886808E-09  0.3886808E-09  0.5000000E-15
  1.000000000000000E-004
  CAR 
 unknown system                          
     42      4     28
 
  0.1250000E+00  0.1250000E+00  0.1250000E+00  0.1250000E+00
    1      -54.405494    -50.153339   1.000000   1.000000
    2      -54.405494    -50.153339   1.000000   1.000000
    3      -54.405292    -50.153224   1.000000   1.000000
    4      -29.797562    -29.791650   1.000000   1.000000
    5      -15.222481    -15.126410   1.000000   1.000000
    6      -14.053722    -13.752394   1.000000   1.000000
    7      -14.053722    -13.752394   1.000000   1.000000
    8      -11.822986    -11.798504   1.000000   1.000000
    9      -11.822986    -11.798504   1.000000   1.000000
   10      -11.693112    -11.680372   1.000000   1.000000
   11       -4.183519     -1.616400   1.000000   1.000000
   12       -4.183518     -1.194660   1.000000   1.000000
   13       -4.181332     -1.194660   1.000000   1.000000
   14       -3.290944      0.892936   1.000000   1.000000
   15       -3.290944      0.892936   1.000000   1.000000
   16       -1.671852      1.128083   1.000000   1.000000
   17       -0.272964      1.755682   1.000000   1.000000
   18       -0.272964      1.837443   1.000000   1.000000
   19        1.180372      1.837443   1.000000   1.000000
   20        1.180373      4.210930   1.000000   0.000000
   21        1.346882      4.284250   1.000000   0.000000
   22        1.618814      4.284251   1.000000   0.000000
   23        2.264178      4.900595   0.990302   0.000000
   24        2.264178      4.900595   0.987378   0.000000
   25        8.997923      9.061963   0.000000   0.000000
   26        8.997980      9.062033   0.000000   0.000000
   27        9.805546      9.941367   0.000000   0.000000
   28       11.222596     11.427757   0.000000   0.000000
 
  0.3750000E+00  0.1250000E+00  0.1250000E+00  0.3750000E+00
    1      -54.406289    -50.154843   1.000000   1.000000
    2      -54.405141    -50.153051   1.000000   1.000000
    3      -54.405099    -50.152997   1.000000   1.000000
    4      -29.780135    -29.774321   1.000000   1.000000
    5      -15.171883    -15.053421   1.000000   1.000000
    6      -14.115621    -13.996052   1.000000   1.000000
    7      -13.985742    -13.672969   1.000000   1.000000
    8      -11.854110    -11.837714   1.000000   1.000000
    9      -11.713711    -11.696794   1.000000   1.000000
   10      -11.478199    -11.444425   1.000000   1.000000
   11       -4.867716     -2.199203   1.000000   1.000000
   12       -4.417967     -1.226816   1.000000   1.000000
   13       -4.364491     -1.125112   1.000000   1.000000
   14       -4.191163     -0.289557   1.000000   1.000000
   15       -3.289578      0.072112   1.000000   1.000000
   16       -1.656159      0.924139   1.000000   1.000000
   17       -0.176340      1.389738   1.000000   1.000000
   18        0.254859      1.588634   1.000000   1.000000
   19        0.744193      1.608925   1.000000   1.000000
   20        1.049719      4.303675   1.000000   0.000000
   21        1.474076      4.836623   1.000000   0.000000
   22        1.733634      5.015415   1.000000   0.000000
   23        2.039394      5.068832   0.989557   0.000000
   24        2.629392      6.145287   0.213499   0.000000
   25       10.113341     10.193142   0.000000   0.000000
   26       10.326772     10.389298   0.000000   0.000000
   27       11.258466     11.331001   0.000000   0.000000
   28       11.450654     11.557955   0.000000   0.000000
 
  0.3750000E+00  0.3750000E+00  0.1250000E+00  0.3750000E+00
    1      -54.406521    -50.154957   1.000000   1.000000
    2      -54.406400    -50.154872   1.000000   1.000000
    3      -54.405176    -50.153009   1.000000   1.000000
    4      -29.764501    -29.758774   1.000000   1.000000
    5      -14.773527    -14.662603   1.000000   1.000000
    6      -14.269454    -14.165487   1.000000   1.000000
    7      -14.047570    -13.843761   1.000000   1.000000
    8      -11.843981    -11.830169   1.000000   1.000000
    9      -11.662482    -11.634980   1.000000   1.000000
   10      -11.561811    -11.546053   1.000000   1.000000
   11       -5.079510     -2.678065   1.000000   1.000000
   12       -4.712535     -1.511384   1.000000   1.000000
   13       -4.538340     -1.272100   1.000000   1.000000
   14       -4.410810     -0.902796   1.000000   1.000000
   15       -4.404465     -0.044581   1.000000   1.000000
   16       -1.815866      0.094734   1.000000   1.000000
   17        0.172273      1.406216   1.000000   1.000000
   18        0.820823      1.520455   1.000000   1.000000
   19        0.848461      2.436358   1.000000   1.000000
   20        0.882913      5.008203   1.000000   0.000000
   21        1.455824      5.068472   1.000000   0.000000
   22        1.901160      5.241390   1.000000   0.000000
   23        2.285843      5.400409   0.894749   0.000000
   24        3.775453      7.219087  -0.045689   0.000000
   25       10.652800     10.721748   0.000000   0.000000
   26       11.023754     11.089047   0.000000   0.000000
   27       11.424195     11.526106   0.000000   0.000000
   28       11.711032     11.779916   0.000000   0.000000
 
  0.3750000E+00  0.3750000E+00  0.3750000E+00  0.1250000E+00
    1      -54.406371    -50.154818   1.000000   1.000000
    2      -54.406371    -50.154818   1.000000   1.000000
    3      -54.406127    -50.154615   1.000000   1.000000
    4      -29.750006    -29.744417   1.000000   1.000000
    5      -14.380315    -14.301579   1.000000   1.000000
    6      -14.029273    -13.914613   1.000000   1.000000
    7      -14.029273    -13.914613   1.000000   1.000000
    8      -12.014814    -11.990584   1.000000   1.000000
    9      -12.014814    -11.990584   1.000000   1.000000
   10      -11.797342    -11.778048   1.000000   1.000000
   11       -5.077908     -3.171384   1.000000   1.000000
   12       -5.077908     -1.485205   1.000000   1.000000
   13       -4.640286     -1.485205   1.000000   1.000000
   14       -4.561437     -0.916777   1.000000   1.000000
   15       -4.561437     -0.635545   1.000000   1.000000
   16       -3.381445     -0.635545   1.000000   1.000000
   17        0.545557      2.327149   1.000000   1.000000
   18        0.787884      2.327149   1.000000   1.000000
   19        0.787884      2.560447   1.000000   1.000000
   20        2.139689      5.332153   1.000000   0.000000
   21        2.139689      5.363819   1.000000   0.000000
   22        2.417849      5.363819   1.000000   0.000000
   23        3.732790      7.190458  -0.127287   0.000000
   24        3.732791      7.190458  -0.006741   0.000000
   25       10.208597     10.307010   0.000000   0.000000
   26       10.363789     10.449333   0.000000   0.000000
   27       10.364029     10.449548   0.000000   0.000000
   28       12.194205     12.231854   0.000000   0.000000
