       N       E                     dE             d eps       ncg     rms          rms(c)
DAV:   1     0.337628285973E+03    0.33763E+03   -0.17102E+04   464   0.118E+03
DAV:   2    -0.186208024212E+02   -0.35625E+03   -0.34599E+03   468   0.404E+02
DAV:   3    -0.369962078013E+02   -0.18375E+02   -0.18098E+02   596   0.971E+01
DAV:   4    -0.376756380107E+02   -0.67943E+00   -0.67503E+00   704   0.131E+01
DAV:   5    -0.376844111636E+02   -0.87732E-02   -0.87344E-02   596   0.132E+00    0.266E+01
RMM:   6    -0.430594075007E+02   -0.53750E+01   -0.12352E+02   498   0.886E+01    0.419E+01
RMM:   7    -0.320465254434E+02    0.11013E+02   -0.31809E+01   464   0.395E+01    0.171E+01
RMM:   8    -0.321041462918E+02   -0.57621E-01   -0.57558E-01   486   0.583E+00    0.124E+01
RMM:   9    -0.315857979600E+02    0.51835E+00   -0.30294E+00   459   0.119E+01    0.285E+00
RMM:  10    -0.314801627053E+02    0.10564E+00   -0.13042E-01   479   0.243E+00    0.198E+00
RMM:  11    -0.314768239380E+02    0.33388E-02   -0.14408E-01   449   0.271E+00    0.427E-01
RMM:  12    -0.314972891710E+02   -0.20465E-01   -0.14267E-02   398   0.817E-01    0.566E-01
RMM:  13    -0.314783231780E+02    0.18966E-01   -0.80861E-03   354   0.674E-01    0.817E-02
RMM:  14    -0.314783796194E+02   -0.56441E-04   -0.16244E-03   269   0.186E-01
   1 F= -.31478380E+02 E0= -.31478380E+02  d E =-.314784E+02  mag=     3.9908
