<?xml version="1.0" encoding="ISO-8859-1"?>
<modeling>
 <generator>
  <i name="program" type="string">vasp </i>
  <i name="version" type="string">5.4.1  </i>
  <i name="subversion" type="string">24Jun15 (build Jan 06 2016 13:10:00) complex                          parallel </i>
  <i name="platform" type="string">IFC91_ompi </i>
  <i name="date" type="string">2016 02 25 </i>
  <i name="time" type="string">16:56:12 </i>
 </generator>
 <incar>
  <i type="string" name="PREC">normal</i>
  <i type="string" name="ALGO"> Fast</i>
  <i type="int" name="ISPIN">     2</i>
  <i type="int" name="NELM">   100</i>
  <i type="int" name="IBRION">     1</i>
  <i name="EDIFF">      0.00100000</i>
  <i name="EDIFFG">     -0.01000000</i>
  <i type="int" name="NSW">    99</i>
  <i type="int" name="ISIF">     3</i>
  <i name="ENCUT">    300.00000000</i>
  <i type="string" name="LREAL">Auto</i>
  <i type="int" name="ISMEAR">    -5</i>
  <i name="SIGMA">      0.05000000</i>
  <i type="int" name="LMAXMIX">     4</i>
  <i type="logical" name="LWAVE"> F  </i>
  <v type="int" name="KPOINT_BSE">    -1     0     0     0</v>
  <i type="int" name="NELM">   100</i>
  <i type="logical" name="LDAU"> T  </i>
  <v type="int" name="LDAUTYPE">     2</v>
  <v type="int" name="LDAUL">     0     2     0</v>
  <v name="LDAUU">      0.00000000      5.30000000      0.00000000</v>
  <v name="LDAUJ">      0.00000000      0.00000000      0.00000000</v>
  <i type="int" name="LDAUPRINT">     1</i>
 </incar>
 <kpoints>
  <generation param="Monkhorst-Pack">
   <v type="int" name="divisions">       4        4        4 </v>
   <v name="usershift">      0.00000000       0.00000000       0.00000000 </v>
   <v name="genvec1">      0.25000000       0.00000000       0.00000000 </v>
   <v name="genvec2">      0.00000000       0.25000000       0.00000000 </v>
   <v name="genvec3">      0.00000000       0.00000000       0.25000000 </v>
   <v name="shift">      0.50000000       0.50000000       0.50000000 </v>
  </generation>
  <varray name="kpointlist" >
   <v>       0.12500000       0.12500000       0.12500000 </v>
   <v>       0.37500000       0.12500000       0.12500000 </v>
   <v>       0.37500000       0.37500000       0.12500000 </v>
   <v>       0.37500000       0.37500000       0.37500000 </v>
  </varray>
  <varray name="weights" >
   <v>       0.12500000 </v>
   <v>       0.37500000 </v>
   <v>       0.37500000 </v>
   <v>       0.12500000 </v>
  </varray>
  <varray name="tetrahedronlist"  type="int" >
   <v type="int" >       24        1        2        2        3 </v>
   <v type="int" >       48        2        2        3        3 </v>
   <v type="int" >       24        2        3        3        4 </v>
   <v type="int" >       36        2        3        3        3 </v>
   <v type="int" >       24        3        3        3        4 </v>
   <v type="int" >       18        3        3        4        4 </v>
   <v type="int" >       18        1        1        2        2 </v>
   <v type="int" >       24        1        2        2        2 </v>
   <v type="int" >       36        2        2        2        3 </v>
   <v type="int" >       12        3        4        4        4 </v>
   <v type="int" >       12        2        2        3        4 </v>
   <v type="int" >       12        2        3        4        4 </v>
   <v type="int" >       12        1        2        3        4 </v>
   <v type="int" >       12        1        1        2        3 </v>
   <v type="int" >       12        1        2        3        3 </v>
   <v type="int" >       12        1        1        1        2 </v>
   <v type="int" >        6        4        4        4        4 </v>
   <v type="int" >       18        3        3        3        3 </v>
   <v type="int" >       18        2        2        2        2 </v>
   <v type="int" >        6        1        1        1        1 </v>
  </varray>
  <i name="volumeweight">      0.00260417 </i>
 </kpoints>
 <parameters>
  <separator name="general" >
   <i type="string" name="SYSTEM">unknown system</i>
   <i type="logical" name="LCOMPAT"> F  </i>
  </separator>
  <separator name="electronic" >
   <i type="string" name="PREC">normal</i>
   <i name="ENMAX">    300.00000000</i>
   <i name="ENAUG">    578.34200000</i>
   <i name="EDIFF">      0.00100000</i>
   <i type="int" name="IALGO">    68</i>
   <i type="int" name="IWAVPR">    11</i>
   <i type="int" name="NBANDS">    28</i>
   <i name="NELECT">     42.00000000</i>
   <i type="int" name="TURBO">     0</i>
   <i type="int" name="IRESTART">     0</i>
   <i type="int" name="NREBOOT">     0</i>
   <i type="int" name="NMIN">     0</i>
   <i name="EREF">      0.00000000</i>
   <separator name="electronic smearing" >
    <i type="int" name="ISMEAR">    -5</i>
    <i name="SIGMA">      0.05000000</i>
    <i name="KSPACING">      0.50000000</i>
    <i type="logical" name="KGAMMA"> T  </i>
   </separator>
   <separator name="electronic projectors" >
    <i type="logical" name="LREAL"> T  </i>
    <v name="ROPT">     -0.00050000     -0.00050000     -0.00050000</v>
    <i type="int" name="LMAXPAW">  -100</i>
    <i type="int" name="LMAXMIX">     4</i>
    <i type="logical" name="NLSPLINE"> F  </i>
   </separator>
   <separator name="electronic startup" >
    <i type="int" name="ISTART">     0</i>
    <i type="int" name="ICHARG">     2</i>
    <i type="int" name="INIWAV">     1</i>
   </separator>
   <separator name="electronic spin" >
    <i type="int" name="ISPIN">     2</i>
    <i type="logical" name="LNONCOLLINEAR"> F  </i>
    <v name="MAGMOM">      1.00000000      1.00000000      1.00000000      1.00000000      1.00000000</v>
    <i name="NUPDOWN">     -1.00000000</i>
    <i type="logical" name="LSORBIT"> F  </i>
    <v name="SAXIS">      0.00000000      0.00000000      1.00000000</v>
    <i type="logical" name="LSPIRAL"> F  </i>
    <v name="QSPIRAL">      0.00000000      0.00000000      0.00000000</v>
    <i type="logical" name="LZEROZ"> F  </i>
   </separator>
   <separator name="electronic exchange-correlation" >
    <i type="logical" name="LASPH"> F  </i>
    <i type="logical" name="LMETAGGA"> F  </i>
   </separator>
   <separator name="electronic convergence" >
    <i type="int" name="NELM">   100</i>
    <i type="int" name="NELMDL">     0</i>
    <i type="int" name="NELMIN">     2</i>
    <i name="ENINI">    300.00000000</i>
    <separator name="electronic convergence detail" >
     <i type="logical" name="LDIAG"> T  </i>
     <i type="logical" name="LSUBROT"> F  </i>
     <i name="WEIMIN">      0.00100000</i>
     <i name="EBREAK">      0.00000893</i>
     <i name="DEPER">      0.30000000</i>
     <i type="int" name="NRMM">     4</i>
     <i name="TIME">      0.40000000</i>
    </separator>
   </separator>
   <separator name="electronic mixer" >
    <i name="AMIX">      0.40000000</i>
    <i name="BMIX">      1.00000000</i>
    <i name="AMIN">      0.10000000</i>
    <i name="AMIX_MAG">      1.60000000</i>
    <i name="BMIX_MAG">      1.00000000</i>
    <separator name="electronic mixer details" >
     <i type="int" name="IMIX">     4</i>
     <i type="logical" name="MIXFIRST"> F  </i>
     <i type="int" name="MAXMIX">   -45</i>
     <i name="WC">    100.00000000</i>
     <i type="int" name="INIMIX">     1</i>
     <i type="int" name="MIXPRE">     1</i>
     <i type="int" name="MREMOVE">     5</i>
    </separator>
   </separator>
   <separator name="electronic dipolcorrection" >
    <i type="logical" name="LDIPOL"> F  </i>
    <i type="logical" name="LMONO"> F  </i>
    <i type="int" name="IDIPOL">     0</i>
    <i name="EPSILON">      1.00000000</i>
    <v name="DIPOL">   -100.00000000   -100.00000000   -100.00000000</v>
    <i name="EFIELD">      0.00000000</i>
   </separator>
  </separator>
  <separator name="grids" >
   <i type="int" name="NGX">    16</i>
   <i type="int" name="NGY">    16</i>
   <i type="int" name="NGZ">    16</i>
   <i type="int" name="NGXF">    32</i>
   <i type="int" name="NGYF">    32</i>
   <i type="int" name="NGZF">    32</i>
   <i type="logical" name="ADDGRID"> F  </i>
  </separator>
  <separator name="ionic" >
   <i type="int" name="NSW">    99</i>
   <i type="int" name="IBRION">     1</i>
   <i type="int" name="ISIF">     3</i>
   <i name="PSTRESS">      0.00000000</i>
   <i name="EDIFFG">     -0.01000000</i>
   <i type="int" name="NFREE">     0</i>
   <i name="POTIM">      0.50000000</i>
   <i name="SMASS">     -3.00000000</i>
   <i name="SCALEE">      1.00000000</i>
  </separator>
  <separator name="ionic md" >
   <i name="TEBEG">      0.00010000</i>
   <i name="TEEND">      0.00010000</i>
   <i type="int" name="NBLOCK">     1</i>
   <i type="int" name="KBLOCK">    99</i>
   <i type="int" name="NPACO">   256</i>
   <i name="APACO">     16.00000000</i>
  </separator>
  <separator name="symmetry" >
   <i type="int" name="ISYM">     2</i>
   <i name="SYMPREC">      0.00001000</i>
  </separator>
  <separator name="dos" >
   <i type="logical" name="LORBIT"> F  </i>
   <v name="RWIGS">     -1.00000000     -1.00000000     -1.00000000</v>
   <i type="int" name="NEDOS">   301</i>
   <i name="EMIN">     10.00000000</i>
   <i name="EMAX">    -10.00000000</i>
   <i name="EFERMI">      0.00000000</i>
  </separator>
  <separator name="writing" >
   <i type="int" name="NWRITE">     2</i>
   <i type="logical" name="LWAVE"> F  </i>
   <i type="logical" name="LCHARG"> T  </i>
   <i type="logical" name="LPARD"> F  </i>
   <i type="logical" name="LVTOT"> F  </i>
   <i type="logical" name="LVHAR"> F  </i>
   <i type="logical" name="LELF"> F  </i>
   <i type="logical" name="LOPTICS"> F  </i>
   <v name="STM">      0.00000000      0.00000000      0.00000000      0.00000000      0.00000000      0.00000000      0.00000000</v>
  </separator>
  <separator name="performance" >
   <i type="int" name="NPAR">     2</i>
   <i type="int" name="NSIM">     4</i>
   <i type="int" name="NBLK">    -1</i>
   <i type="logical" name="LPLANE"> T  </i>
   <i type="logical" name="LSCALAPACK"> T  </i>
   <i type="logical" name="LSCAAWARE"> F  </i>
   <i type="logical" name="LSCALU"> F  </i>
   <i type="logical" name="LASYNC"> F  </i>
   <i type="logical" name="LORBITALREAL"> F  </i>
  </separator>
  <separator name="miscellaneous" >
   <i type="int" name="IDIOT">     3</i>
   <i type="logical" name="LMUSIC"> F  </i>
   <v name="POMASS">     87.62000000     55.84700000     16.00000000</v>
   <v name="DARWINR">      0.00000000      0.00000000      0.00000000</v>
   <v name="DARWINV">      1.00000000      1.00000000      1.00000000</v>
   <i type="logical" name="LCORR"> T  </i>
  </separator>
  <i type="logical" name="GGA_COMPAT"> T  </i>
  <i type="logical" name="LBERRY"> F  </i>
  <i type="int" name="ICORELEVEL">     0</i>
  <i type="logical" name="LDAU"> T  </i>
  <v type="int" name="LDAUTYPE">     2</v>
  <v type="int" name="LDAUL">     0</v>
  <v name="LDAUU">      0.00000000</v>
  <v name="LDAUJ">      0.00000000</v>
  <i type="int" name="LDAUPRINT">     1</i>
  <i type="int" name="I_CONSTRAINED_M">     0</i>
  <separator name="electronic exchange-correlation" >
   <i type="string" name="GGA">--</i>
   <i type="int" name="VOSKOWN">     0</i>
   <i type="logical" name="LHFCALC"> F  </i>
   <i type="string" name="PRECFOCK"></i>
   <i type="logical" name="LSYMGRAD"> F  </i>
   <i type="logical" name="LHFONE"> F  </i>
   <i type="logical" name="LRHFCALC"> F  </i>
   <i type="logical" name="LTHOMAS"> F  </i>
   <i type="logical" name="LMODELHF"> F  </i>
   <i name="ENCUT4O">     -1.00000000</i>
   <i type="int" name="EXXOEP">     0</i>
   <i type="int" name="FOURORBIT">     0</i>
   <i name="AEXX">      0.00000000</i>
   <i name="HFALPHA">      0.00000000</i>
   <i name="MCALPHA">      0.00000000</i>
   <i name="ALDAX">      1.00000000</i>
   <i name="AGGAX">      1.00000000</i>
   <i name="ALDAC">      1.00000000</i>
   <i name="AGGAC">      1.00000000</i>
   <i type="int" name="NKREDX">     1</i>
   <i type="int" name="NKREDY">     1</i>
   <i type="int" name="NKREDZ">     1</i>
   <i type="logical" name="SHIFTRED"> F  </i>
   <i type="logical" name="ODDONLY"> F  </i>
   <i type="logical" name="EVENONLY"> F  </i>
   <i type="int" name="LMAXFOCK">     0</i>
   <i type="int" name="NMAXFOCKAE">     0</i>
   <i type="logical" name="LFOCKAEDFT"> F  </i>
   <i name="HFSCREEN">      0.00000000</i>
   <i name="HFSCREENC">      0.00000000</i>
   <i type="int" name="NBANDSGWLOW">     0</i>
  </separator>
  <separator name="vdW DFT" >
   <i type="logical" name="LUSE_VDW"> F  </i>
   <i name="Zab_VDW">     -0.84910000</i>
   <i name="PARAM1">      0.12340000</i>
   <i name="PARAM2">      1.00000000</i>
   <i name="PARAM3">      0.00000000</i>
  </separator>
  <separator name="model GW" >
   <i type="int" name="MODEL_GW">     0</i>
   <i name="MODEL_EPS0">      7.04629087</i>
   <i name="MODEL_ALPHA">      1.00000000</i>
  </separator>
  <separator name="linear response parameters" >
   <i type="logical" name="LEPSILON"> F  </i>
   <i type="logical" name="LRPA"> F  </i>
   <i type="logical" name="LNABLA"> F  </i>
   <i type="logical" name="LVEL"> F  </i>
   <i type="int" name="KINTER">     0</i>
   <i name="CSHIFT">      0.10000000</i>
   <i name="OMEGAMAX">     -1.00000000</i>
   <i name="DEG_THRESHOLD">      0.00200000</i>
  </separator>
  <separator name="orbital magnetization" >
   <i type="logical" name="NUCIND"> F  </i>
   <v name="MAGPOS">      0.00000000      0.00000000      0.00000000</v>
   <i type="logical" name="LNICSALL"> T  </i>
   <i type="logical" name="ORBITALMAG"> F  </i>
   <i type="logical" name="LMAGBLOCH"> F  </i>
   <i type="logical" name="LCHIMAG"> F  </i>
   <i type="logical" name="LGAUGE"> T  </i>
   <i type="int" name="MAGATOM">     0</i>
   <v name="MAGDIPOL">      0.00000000      0.00000000      0.00000000</v>
   <v name="AVECCONST">      0.00000000      0.00000000      0.00000000</v>
  </separator>
  <separator name="response functions" >
   <i type="logical" name="LADDER"> F  </i>
   <i type="logical" name="LFXC"> F  </i>
   <i type="logical" name="LHARTREE"> T  </i>
   <i type="int" name="IBSE">     0</i>
   <v type="int" name="KPOINT">    -1     0     0     0</v>
   <i type="logical" name="LTCTE"> F  </i>
   <i type="logical" name="LTETE"> F  </i>
   <i type="logical" name="LTRIPLET"> F  </i>
   <i type="logical" name="LFXCEPS"> F  </i>
   <i type="logical" name="LFXHEG"> F  </i>
   <i type="int" name="NATURALO">     0</i>
   <i type="logical" name="L2ORDER"> F  </i>
   <i type="logical" name="LUSEW"> F  </i>
   <i name="ENCUTGW">     -2.00000000</i>
   <i name="ENCUTGWSOFT">     -2.00000000</i>
   <i name="ENCUTLF">     -1.00000000</i>
   <i type="int" name="LMAXMP2">    -1</i>
   <i name="SCISSOR">      0.00000000</i>
   <i type="int" name="NOMEGA">     0</i>
   <i type="int" name="NOMEGAR">     0</i>
   <i type="int" name="NBANDSGW">    -1</i>
   <i type="int" name="NBANDSO">    -1</i>
   <i type="int" name="NBANDSV">    -1</i>
   <i type="int" name="NELM">   100</i>
   <i type="int" name="NELMHF">     1</i>
   <i type="int" name="DIM">     3</i>
   <i type="int" name="ANTIRES">     0</i>
   <i name="OMEGAMAX">    -30.00000000</i>
   <i name="OMEGAMIN">    -30.00000000</i>
   <i name="OMEGATL">   -200.00000000</i>
   <i type="int" name="OMEGAGRID">     0</i>
   <i name="CSHIFT">     -0.10000000</i>
   <i type="logical" name="SELFENERGY"> F  </i>
   <i type="logical" name="LSPECTRAL"> F  </i>
   <i type="logical" name="LSPECTRALGW"> F  </i>
   <i type="logical" name="LSINGLES"> F  </i>
   <i type="logical" name="LFERMIGW"> F  </i>
   <i type="logical" name="ODDONLYGW"> F  </i>
   <i type="logical" name="EVENONLYGW"> F  </i>
   <i type="int" name="NKREDLFX">     1</i>
   <i type="int" name="NKREDLFY">     1</i>
   <i type="int" name="NKREDLFZ">     1</i>
   <i type="int" name="MAXMEM">  1800</i>
   <i type="int" name="TELESCOPE">     0</i>
   <i type="int" name="TAUPAR">     1</i>
   <i type="int" name="OMEGAPAR">    -1</i>
   <i name="LAMBDA">      1.00000000</i>
  </separator>
  <separator name="External order field" >
   <i name="OFIELD_KAPPA">      0.00000000</i>
   <v name="OFIELD_K">      0.00000000      0.00000000      0.00000000</v>
   <i name="OFIELD_Q6_NEAR">      0.00000000</i>
   <i name="OFIELD_Q6_FAR">      0.00000000</i>
   <i name="OFIELD_A">      0.00000000</i>
  </separator>
  <separator name="solvation model" >
   <i type="logical" name="LSOL"> F  </i>
  </separator>
 </parameters>
 <atominfo>
  <atoms>       5 </atoms>
  <types>       3 </types>
  <array name="atoms" >
   <dimension dim="1">ion</dimension>
   <field type="string">element</field>
   <field type="int">atomtype</field>
   <set>
    <rc><c>Sr</c><c>   1</c></rc>
    <rc><c>Fe</c><c>   2</c></rc>
    <rc><c>O </c><c>   3</c></rc>
    <rc><c>O </c><c>   3</c></rc>
    <rc><c>O </c><c>   3</c></rc>
   </set>
  </array>
  <array name="atomtypes" >
   <dimension dim="1">type</dimension>
   <field type="int">atomspertype</field>
   <field type="string">element</field>
   <field>mass</field>
   <field>valence</field>
   <field type="string">pseudopotential</field>
   <set>
    <rc><c>   1</c><c>Sr</c><c>     87.62000000</c><c>     10.00000000</c><c>  PAW Sr                                </c></rc>
    <rc><c>   1</c><c>Fe</c><c>     55.84700000</c><c>     14.00000000</c><c>  PAW Fe                                </c></rc>
    <rc><c>   3</c><c>O </c><c>     16.00000000</c><c>      6.00000000</c><c>  PAW O_s                               </c></rc>
   </set>
  </array>
 </atominfo>
 <structure name="initialpos" >
  <crystal>
   <varray name="basis" >
    <v>       3.88680817       0.00000000       0.00000000 </v>
    <v>       0.00000000       3.88680817       0.00000000 </v>
    <v>       0.00000000       0.00000000       3.88680817 </v>
   </varray>
   <i name="volume">     58.71909055 </i>
   <varray name="rec_basis" >
    <v>       0.25728051       0.00000000       0.00000000 </v>
    <v>       0.00000000       0.25728051       0.00000000 </v>
    <v>       0.00000000       0.00000000       0.25728051 </v>
   </varray>
  </crystal>
  <varray name="positions" >
   <v>       0.50000000       0.50000000       0.50000000 </v>
   <v>       0.00000000       0.00000000       0.00000000 </v>
   <v>       0.50000000       0.00000000       0.00000000 </v>
   <v>       0.00000000       0.50000000       0.00000000 </v>
   <v>       0.00000000       0.00000000       0.50000000 </v>
  </varray>
 </structure>
 <calculation>
  <scstep>
   <time name="dav">    0.15    0.15</time>
   <time name="total">    0.22    0.22</time>
   <energy>
    <i name="alphaZ">    292.71773139 </i>
    <i name="ewald">  -3250.37905704 </i>
    <i name="hartreedc">  -1286.18484636 </i>
    <i name="XCdc">    190.44132992 </i>
    <i name="pawpsdc">   3241.81915236 </i>
    <i name="pawaedc">  -3317.81696278 </i>
    <i name="eentropy">      0.00000000 </i>
    <i name="bandstr">   -134.91744073 </i>
    <i name="atom">   4601.94837920 </i>
    <i name="e_fr_energy">    337.62828597 </i>
    <i name="e_wo_entrp">    337.62828597 </i>
    <i name="e_0_energy">    337.62828597 </i>
   </energy>
  </scstep>
  <scstep>
   <time name="dav">    0.14    0.14</time>
   <time name="total">    0.15    0.15</time>
   <energy>
    <i name="e_fr_energy">    -18.62080242 </i>
    <i name="e_wo_entrp">    -18.62080242 </i>
    <i name="e_0_energy">    -18.62080242 </i>
   </energy>
  </scstep>
  <scstep>
   <time name="dav">    0.18    0.18</time>
   <time name="total">    0.18    0.18</time>
   <energy>
    <i name="e_fr_energy">    -36.99620780 </i>
    <i name="e_wo_entrp">    -36.99620780 </i>
    <i name="e_0_energy">    -36.99620780 </i>
   </energy>
  </scstep>
  <scstep>
   <time name="dav">    0.21    0.21</time>
   <time name="total">    0.21    0.21</time>
   <energy>
    <i name="e_fr_energy">    -37.67563801 </i>
    <i name="e_wo_entrp">    -37.67563801 </i>
    <i name="e_0_energy">    -37.67563801 </i>
   </energy>
  </scstep>
  <scstep>
   <time name="dav">    0.18    0.18</time>
   <time name="total">    0.19    0.19</time>
   <energy>
    <i name="e_fr_energy">    -37.68441116 </i>
    <i name="e_wo_entrp">    -37.68441116 </i>
    <i name="e_0_energy">    -37.68441116 </i>
   </energy>
  </scstep>
  <scstep>
   <time name="diag">    0.03    0.03</time>
   <time name="diis">    0.08    0.08</time>
   <time name="orth">    0.00    0.01</time>
   <time name="total">    0.19    0.19</time>
   <energy>
    <i name="e_fr_energy">    -43.05940750 </i>
    <i name="e_wo_entrp">    -43.05940750 </i>
    <i name="e_0_energy">    -43.05940750 </i>
   </energy>
  </scstep>
  <scstep>
   <time name="diag">    0.03    0.03</time>
   <time name="diis">    0.06    0.06</time>
   <time name="orth">    0.00    0.00</time>
   <time name="total">    0.16    0.17</time>
   <energy>
    <i name="e_fr_energy">    -32.04652544 </i>
    <i name="e_wo_entrp">    -32.04652544 </i>
    <i name="e_0_energy">    -32.04652544 </i>
   </energy>
  </scstep>
  <scstep>
   <time name="diag">    0.03    0.03</time>
   <time name="diis">    0.06    0.06</time>
   <time name="orth">    0.00    0.00</time>
   <time name="total">    0.17    0.17</time>
   <energy>
    <i name="e_fr_energy">    -32.10414629 </i>
    <i name="e_wo_entrp">    -32.10414629 </i>
    <i name="e_0_energy">    -32.10414629 </i>
   </energy>
  </scstep>
  <scstep>
   <time name="diag">    0.03    0.03</time>
   <time name="diis">    0.06    0.06</time>
   <time name="orth">    0.00    0.00</time>
   <time name="total">    0.16    0.16</time>
   <energy>
    <i name="e_fr_energy">    -31.58579796 </i>
    <i name="e_wo_entrp">    -31.58579796 </i>
    <i name="e_0_energy">    -31.58579796 </i>
   </energy>
  </scstep>
  <scstep>
   <time name="diag">    0.03    0.03</time>
   <time name="diis">    0.06    0.06</time>
   <time name="orth">    0.00    0.00</time>
   <time name="total">    0.17    0.17</time>
   <energy>
    <i name="e_fr_energy">    -31.48016271 </i>
    <i name="e_wo_entrp">    -31.48016271 </i>
    <i name="e_0_energy">    -31.48016271 </i>
   </energy>
  </scstep>
  <scstep>
   <time name="diag">    0.03    0.03</time>
   <time name="diis">    0.05    0.05</time>
   <time name="orth">    0.00    0.00</time>
   <time name="total">    0.16    0.16</time>
   <energy>
    <i name="e_fr_energy">    -31.47682394 </i>
    <i name="e_wo_entrp">    -31.47682394 </i>
    <i name="e_0_energy">    -31.47682394 </i>
   </energy>
  </scstep>
  <scstep>
   <time name="diag">    0.03    0.03</time>
   <time name="diis">    0.05    0.05</time>
   <time name="orth">    0.00    0.00</time>
   <time name="total">    0.16    0.16</time>
   <energy>
    <i name="e_fr_energy">    -31.49728917 </i>
    <i name="e_wo_entrp">    -31.49728917 </i>
    <i name="e_0_energy">    -31.49728917 </i>
   </energy>
  </scstep>
  <scstep>
   <time name="diag">    0.03    0.03</time>
   <time name="diis">    0.04    0.05</time>
   <time name="orth">    0.00    0.00</time>
   <time name="total">    0.15    0.15</time>
   <energy>
    <i name="e_fr_energy">    -31.47832318 </i>
    <i name="e_wo_entrp">    -31.47832318 </i>
    <i name="e_0_energy">    -31.47832318 </i>
   </energy>
  </scstep>
  <scstep>
   <time name="diag">    0.03    0.03</time>
   <time name="diis">    0.04    0.04</time>
   <time name="orth">    0.00    0.00</time>
   <time name="total">    0.13    0.13</time>
   <energy>
    <i name="alphaZ">    292.71773139 </i>
    <i name="ewald">  -3250.37905704 </i>
    <i name="hartreedc">  -1235.13420296 </i>
    <i name="XCdc">    191.58344897 </i>
    <i name="pawpsdc">   3464.53047998 </i>
    <i name="pawaedc">  -3551.94472280 </i>
    <i name="eentropy">      0.00000000 </i>
    <i name="bandstr">   -544.80043637 </i>
    <i name="atom">   4601.94837920 </i>
    <i name="e_fr_energy">    -31.47837962 </i>
    <i name="e_wo_entrp">    -31.47837962 </i>
    <i name="e_0_energy">    -31.47837962 </i>
   </energy>
  </scstep>
  <structure>
   <crystal>
    <varray name="basis" >
     <v>       3.88680817       0.00000000       0.00000000 </v>
     <v>       0.00000000       3.88680817       0.00000000 </v>
     <v>       0.00000000       0.00000000       3.88680817 </v>
    </varray>
    <i name="volume">     58.71909055 </i>
    <varray name="rec_basis" >
     <v>       0.25728051       0.00000000       0.00000000 </v>
     <v>       0.00000000       0.25728051       0.00000000 </v>
     <v>       0.00000000       0.00000000       0.25728051 </v>
    </varray>
   </crystal>
   <varray name="positions" >
    <v>       0.50000000       0.50000000       0.50000000 </v>
    <v>       0.00000000       0.00000000       0.00000000 </v>
    <v>       0.50000000       0.00000000       0.00000000 </v>
    <v>       0.00000000       0.50000000       0.00000000 </v>
    <v>       0.00000000       0.00000000       0.50000000 </v>
   </varray>
  </structure>
  <varray name="forces" >
   <v>       0.00000000       0.00000000       0.00000000 </v>
   <v>       0.00000000       0.00000000       0.00000000 </v>
   <v>       0.00000000       0.00000000       0.00000000 </v>
   <v>       0.00000000       0.00000000       0.00000000 </v>
   <v>       0.00000000       0.00000000       0.00000000 </v>
  </varray>
  <varray name="stress" >
   <v>       1.15540850       0.00000000       0.00000000 </v>
   <v>       0.00000000       1.15540850       0.00000000 </v>
   <v>       0.00000000       0.00000000       1.15540850 </v>
  </varray>
  <energy>
   <i name="e_fr_energy">    -31.47837962 </i>
   <i name="e_wo_entrp">    -31.47837962 </i>
   <i name="e_0_energy">      0.00000000 </i>
  </energy>
  <time name="totalsc">    2.78    2.82</time>
  <eigenvalues>
   <array>
    <dimension dim="1">band</dimension>
    <dimension dim="2">kpoint</dimension>
    <dimension dim="3">spin</dimension>
    <field>eigene</field>
    <field>occ</field>
    <set>
     <set comment="spin 1">
      <set comment="kpoint 1">
       <r>  -54.4055    1.0000 </r>
       <r>  -54.4055    1.0000 </r>
       <r>  -54.4053    1.0000 </r>
       <r>  -29.7976    1.0000 </r>
       <r>  -15.2225    1.0000 </r>
       <r>  -14.0537    1.0000 </r>
       <r>  -14.0537    1.0000 </r>
       <r>  -11.8230    1.0000 </r>
       <r>  -11.8230    1.0000 </r>
       <r>  -11.6931    1.0000 </r>
       <r>   -4.1835    1.0000 </r>
       <r>   -4.1835    1.0000 </r>
       <r>   -4.1813    1.0000 </r>
       <r>   -3.2909    1.0000 </r>
       <r>   -3.2909    1.0000 </r>
       <r>   -1.6719    1.0000 </r>
       <r>   -0.2730    1.0000 </r>
       <r>   -0.2730    1.0000 </r>
       <r>    1.1804    1.0000 </r>
       <r>    1.1804    1.0000 </r>
       <r>    1.3469    1.0000 </r>
       <r>    1.6188    1.0000 </r>
       <r>    2.2642    0.9903 </r>
       <r>    2.2642    0.9874 </r>
       <r>    8.9979    0.0000 </r>
       <r>    8.9980    0.0000 </r>
       <r>    9.8055    0.0000 </r>
       <r>   11.2226    0.0000 </r>
      </set>
      <set comment="kpoint 2">
       <r>  -54.4063    1.0000 </r>
       <r>  -54.4051    1.0000 </r>
       <r>  -54.4051    1.0000 </r>
       <r>  -29.7801    1.0000 </r>
       <r>  -15.1719    1.0000 </r>
       <r>  -14.1156    1.0000 </r>
       <r>  -13.9857    1.0000 </r>
       <r>  -11.8541    1.0000 </r>
       <r>  -11.7137    1.0000 </r>
       <r>  -11.4782    1.0000 </r>
       <r>   -4.8677    1.0000 </r>
       <r>   -4.4180    1.0000 </r>
       <r>   -4.3645    1.0000 </r>
       <r>   -4.1912    1.0000 </r>
       <r>   -3.2896    1.0000 </r>
       <r>   -1.6562    1.0000 </r>
       <r>   -0.1763    1.0000 </r>
       <r>    0.2549    1.0000 </r>
       <r>    0.7442    1.0000 </r>
       <r>    1.0497    1.0000 </r>
       <r>    1.4741    1.0000 </r>
       <r>    1.7336    1.0000 </r>
       <r>    2.0394    0.9896 </r>
       <r>    2.6294    0.2135 </r>
       <r>   10.1133    0.0000 </r>
       <r>   10.3268    0.0000 </r>
       <r>   11.2585    0.0000 </r>
       <r>   11.4507    0.0000 </r>
      </set>
      <set comment="kpoint 3">
       <r>  -54.4065    1.0000 </r>
       <r>  -54.4064    1.0000 </r>
       <r>  -54.4052    1.0000 </r>
       <r>  -29.7645    1.0000 </r>
       <r>  -14.7735    1.0000 </r>
       <r>  -14.2695    1.0000 </r>
       <r>  -14.0476    1.0000 </r>
       <r>  -11.8440    1.0000 </r>
       <r>  -11.6625    1.0000 </r>
       <r>  -11.5618    1.0000 </r>
       <r>   -5.0795    1.0000 </r>
       <r>   -4.7125    1.0000 </r>
       <r>   -4.5383    1.0000 </r>
       <r>   -4.4108    1.0000 </r>
       <r>   -4.4045    1.0000 </r>
       <r>   -1.8159    1.0000 </r>
       <r>    0.1723    1.0000 </r>
       <r>    0.8208    1.0000 </r>
       <r>    0.8485    1.0000 </r>
       <r>    0.8829    1.0000 </r>
       <r>    1.4558    1.0000 </r>
       <r>    1.9012    1.0000 </r>
       <r>    2.2858    0.8947 </r>
       <r>    3.7755   -0.0457 </r>
       <r>   10.6528    0.0000 </r>
       <r>   11.0238    0.0000 </r>
       <r>   11.4242    0.0000 </r>
       <r>   11.7110    0.0000 </r>
      </set>
      <set comment="kpoint 4">
       <r>  -54.4064    1.0000 </r>
       <r>  -54.4064    1.0000 </r>
       <r>  -54.4061    1.0000 </r>
       <r>  -29.7500    1.0000 </r>
       <r>  -14.3803    1.0000 </r>
       <r>  -14.0293    1.0000 </r>
       <r>  -14.0293    1.0000 </r>
       <r>  -12.0148    1.0000 </r>
       <r>  -12.0148    1.0000 </r>
       <r>  -11.7973    1.0000 </r>
       <r>   -5.0779    1.0000 </r>
       <r>   -5.0779    1.0000 </r>
       <r>   -4.6403    1.0000 </r>
       <r>   -4.5614    1.0000 </r>
       <r>   -4.5614    1.0000 </r>
       <r>   -3.3814    1.0000 </r>
       <r>    0.5456    1.0000 </r>
       <r>    0.7879    1.0000 </r>
       <r>    0.7879    1.0000 </r>
       <r>    2.1397    1.0000 </r>
       <r>    2.1397    1.0000 </r>
       <r>    2.4178    1.0000 </r>
       <r>    3.7328   -0.1273 </r>
       <r>    3.7328   -0.0067 </r>
       <r>   10.2086    0.0000 </r>
       <r>   10.3638    0.0000 </r>
       <r>   10.3640    0.0000 </r>
       <r>   12.1942    0.0000 </r>
      </set>
     </set>
     <set comment="spin 2">
      <set comment="kpoint 1">
       <r>  -50.1533    1.0000 </r>
       <r>  -50.1533    1.0000 </r>
       <r>  -50.1532    1.0000 </r>
       <r>  -29.7917    1.0000 </r>
       <r>  -15.1264    1.0000 </r>
       <r>  -13.7524    1.0000 </r>
       <r>  -13.7524    1.0000 </r>
       <r>  -11.7985    1.0000 </r>
       <r>  -11.7985    1.0000 </r>
       <r>  -11.6804    1.0000 </r>
       <r>   -1.6164    1.0000 </r>
       <r>   -1.1947    1.0000 </r>
       <r>   -1.1947    1.0000 </r>
       <r>    0.8929    1.0000 </r>
       <r>    0.8929    1.0000 </r>
       <r>    1.1281    1.0000 </r>
       <r>    1.7557    1.0000 </r>
       <r>    1.8374    1.0000 </r>
       <r>    1.8374    1.0000 </r>
       <r>    4.2109    0.0000 </r>
       <r>    4.2843    0.0000 </r>
       <r>    4.2843    0.0000 </r>
       <r>    4.9006    0.0000 </r>
       <r>    4.9006    0.0000 </r>
       <r>    9.0620    0.0000 </r>
       <r>    9.0620    0.0000 </r>
       <r>    9.9414    0.0000 </r>
       <r>   11.4278    0.0000 </r>
      </set>
      <set comment="kpoint 2">
       <r>  -50.1548    1.0000 </r>
       <r>  -50.1531    1.0000 </r>
       <r>  -50.1530    1.0000 </r>
       <r>  -29.7743    1.0000 </r>
       <r>  -15.0534    1.0000 </r>
       <r>  -13.9961    1.0000 </r>
       <r>  -13.6730    1.0000 </r>
       <r>  -11.8377    1.0000 </r>
       <r>  -11.6968    1.0000 </r>
       <r>  -11.4444    1.0000 </r>
       <r>   -2.1992    1.0000 </r>
       <r>   -1.2268    1.0000 </r>
       <r>   -1.1251    1.0000 </r>
       <r>   -0.2896    1.0000 </r>
       <r>    0.0721    1.0000 </r>
       <r>    0.9241    1.0000 </r>
       <r>    1.3897    1.0000 </r>
       <r>    1.5886    1.0000 </r>
       <r>    1.6089    1.0000 </r>
       <r>    4.3037    0.0000 </r>
       <r>    4.8366    0.0000 </r>
       <r>    5.0154    0.0000 </r>
       <r>    5.0688    0.0000 </r>
       <r>    6.1453    0.0000 </r>
       <r>   10.1931    0.0000 </r>
       <r>   10.3893    0.0000 </r>
       <r>   11.3310    0.0000 </r>
       <r>   11.5580    0.0000 </r>
      </set>
      <set comment="kpoint 3">
       <r>  -50.1550    1.0000 </r>
       <r>  -50.1549    1.0000 </r>
       <r>  -50.1530    1.0000 </r>
       <r>  -29.7588    1.0000 </r>
       <r>  -14.6626    1.0000 </r>
       <r>  -14.1655    1.0000 </r>
       <r>  -13.8438    1.0000 </r>
       <r>  -11.8302    1.0000 </r>
       <r>  -11.6350    1.0000 </r>
       <r>  -11.5461    1.0000 </r>
       <r>   -2.6781    1.0000 </r>
       <r>   -1.5114    1.0000 </r>
       <r>   -1.2721    1.0000 </r>
       <r>   -0.9028    1.0000 </r>
       <r>   -0.0446    1.0000 </r>
       <r>    0.0947    1.0000 </r>
       <r>    1.4062    1.0000 </r>
       <r>    1.5205    1.0000 </r>
       <r>    2.4364    1.0000 </r>
       <r>    5.0082    0.0000 </r>
       <r>    5.0685    0.0000 </r>
       <r>    5.2414    0.0000 </r>
       <r>    5.4004    0.0000 </r>
       <r>    7.2191    0.0000 </r>
       <r>   10.7217    0.0000 </r>
       <r>   11.0890    0.0000 </r>
       <r>   11.5261    0.0000 </r>
       <r>   11.7799    0.0000 </r>
      </set>
      <set comment="kpoint 4">
       <r>  -50.1548    1.0000 </r>
       <r>  -50.1548    1.0000 </r>
       <r>  -50.1546    1.0000 </r>
       <r>  -29.7444    1.0000 </r>
       <r>  -14.3016    1.0000 </r>
       <r>  -13.9146    1.0000 </r>
       <r>  -13.9146    1.0000 </r>
       <r>  -11.9906    1.0000 </r>
       <r>  -11.9906    1.0000 </r>
       <r>  -11.7780    1.0000 </r>
       <r>   -3.1714    1.0000 </r>
       <r>   -1.4852    1.0000 </r>
       <r>   -1.4852    1.0000 </r>
       <r>   -0.9168    1.0000 </r>
       <r>   -0.6355    1.0000 </r>
       <r>   -0.6355    1.0000 </r>
       <r>    2.3271    1.0000 </r>
       <r>    2.3271    1.0000 </r>
       <r>    2.5604    1.0000 </r>
       <r>    5.3322    0.0000 </r>
       <r>    5.3638    0.0000 </r>
       <r>    5.3638    0.0000 </r>
       <r>    7.1905    0.0000 </r>
       <r>    7.1905    0.0000 </r>
       <r>   10.3070    0.0000 </r>
       <r>   10.4493    0.0000 </r>
       <r>   10.4495    0.0000 </r>
       <r>   12.2319    0.0000 </r>
      </set>
     </set>
    </set>
   </array>
  </eigenvalues>
  <separator name="orbital magnetization" >
   <v name="MAGDIPOLOUT">      0.00000000      0.00000000      0.00000000</v>
  </separator>
 </calculation>
 <structure name="finalpos" >
  <crystal>
   <varray name="basis" >
    <v>       3.88680817       0.00000000       0.00000000 </v>
    <v>       0.00000000       3.88680817       0.00000000 </v>
    <v>       0.00000000       0.00000000       3.88680817 </v>
   </varray>
   <i name="volume">     58.71909055 </i>
   <varray name="rec_basis" >
    <v>       0.25728051       0.00000000       0.00000000 </v>
    <v>       0.00000000       0.25728051       0.00000000 </v>
    <v>       0.00000000       0.00000000       0.25728051 </v>
   </varray>
  </crystal>
  <varray name="positions" >
   <v>       0.50000000       0.50000000       0.50000000 </v>
   <v>       0.00000000       0.00000000       0.00000000 </v>
   <v>       0.50000000       0.00000000       0.00000000 </v>
   <v>       0.00000000       0.50000000       0.00000000 </v>
   <v>       0.00000000       0.00000000       0.50000000 </v>
  </varray>
 </structure>
</modeling>
