unknown system                          
   1.00000000000000     
     5.499594    0.000000    0.000000
     0.000000    5.499200    0.000000
     0.000000    0.000000    7.796573
   Sr   Fe   O 
     4     4    12
Direct
  0.000036  0.500106  0.250000
  0.500036  0.999894  0.750000
  0.499964  0.000106  0.250000
  0.999964  0.499894  0.750000
  0.500000  0.500000  0.500000
  0.000000  0.000000  0.500000
  0.500000  0.500000  0.000000
  0.000000  0.000000  0.000000
  0.746771  0.246776  0.501090
  0.253229  0.753224  0.001090
  0.753229  0.746776  0.501090
  0.997814  0.999997  0.250000
  0.246771  0.253224  0.001090
  0.753229  0.746776  0.998910
  0.497814  0.500003  0.750000
  0.253229  0.753224  0.498910
  0.002186  0.000003  0.750000
  0.502186  0.499997  0.250000
  0.246771  0.253224  0.498910
  0.746771  0.246776  0.998910
 
   48   48   72
  4821.3      4584.4      3924.5      2986.3      1976.4      1103.6      505.59      201.54      100.46      69.086    
  52.935      44.477      39.264      35.149      31.281      27.492      23.858      20.443      17.295      14.521    
  12.242      10.501      9.2670      8.5162      8.2614      8.5162      9.2670      10.501      12.242      14.521    
  17.295      20.443      23.858      27.492      31.281      35.149      39.264      44.477      52.935      69.086    
  100.46      201.54      505.59      1103.6      1976.4      2986.3      3924.5      4584.4      4584.4      4356.1    
  3721.5      2822.3      1859.1      1032.4      471.61      191.09      99.793      70.144      54.741      46.561    
  41.349      37.069      32.948      28.868      24.940      21.256      17.886      14.945      12.545      10.724    
  9.4528      8.7130      8.5162      8.8781      9.7962      11.267      13.314      15.958      19.157      22.788    
  26.718      30.845      35.044      39.175      43.351      48.359      56.266      71.361      100.69      191.63    
  471.65      1031.9      1858.4      2821.7      3721.3      4356.1      3924.6      3721.4      3159.6      2371.7    
  1540.4      842.30      384.09      166.81      100.24      75.406      62.533      55.475      50.450      45.699    
  40.666      35.425      30.256      25.393      21.013      17.262      14.230      11.931      10.342      9.4527    
  9.2669      9.7961      11.055      13.059      15.834      19.409      23.770      28.809      34.325      40.050    
  45.638      50.727      55.215      59.705      66.053      78.147      102.21      168.03      384.44      841.82    
  1539.6      2371.1      3159.7      3721.6      2986.5      2821.9      2371.2      1749.8      1111.7      596.71    
  279.36      144.03      104.99      87.674      79.275      74.425      69.856      64.133      57.063      49.162    
  41.156      33.662      27.092      21.650      17.354      14.134      11.931      10.723      10.500      11.267    
  13.059      15.930      19.950      25.225      31.851      39.779      48.680      57.913      66.588      73.774    
  78.904      82.296      85.631      92.435      108.27      146.03      280.22      596.66      1111.3      1749.8    
  2371.8      2822.5      1976.7      1858.6      1539.7      1111.4      689.66      371.65      197.01      136.09    
  118.12      111.37      109.95      109.00      105.42      97.970      86.965      73.798      60.191      47.603    
  36.927      28.450      22.023      17.353      14.229      12.545      12.241      13.313      15.833      19.950    
  25.888      33.988      44.624      57.891      73.222      89.215      103.83      114.92      121.06      122.24    
  120.24      118.71      122.87      138.79      198.22      371.91      689.65      1111.7      1540.6      1859.4    
  1103.9      1032.1      841.99      596.75      371.95      222.53      158.67      144.53      144.63      152.10    
  161.31      167.29      165.96      155.56      137.48      114.94      91.291      69.642      51.817      38.251    
  28.449      21.648      17.260      14.943      14.520      15.957      19.408      25.224      33.987      46.557    
  63.869      86.297      112.81      140.61      166.28      185.15      192.94      189.00      176.89      162.30    
  150.68      147.53      159.71      222.52      371.68      596.81      842.47      1032.6      505.78      471.82    
  384.56      280.29      198.26      159.73      156.10      167.36      189.00      218.10      248.84      271.63    
  276.86      260.03      224.78      181.12      139.07      102.70      73.378      51.814      36.924      27.089    
  21.010      17.884      17.293      19.156      23.768      31.849      44.622      63.867      91.486      128.25    
  173.87      227.52      279.89      316.59      326.88      309.82      273.98      232.25      195.66      169.71    
  156.08      158.66      197.03      279.43      384.21      471.78      201.62      191.71      168.09      146.06    
  138.81      147.55      169.73      206.42      260.43      329.39      401.15      456.33      475.52      448.70    
  381.90      295.36      212.87      148.89      102.70      69.634      47.597      33.657      25.389      21.253    
  20.440      22.786      28.806      39.775      57.886      86.292      128.25      188.02      273.27      377.43    
  476.94      542.63      555.17      514.20      436.60      346.83      266.27      206.39      167.33      144.51    
  136.08      144.05      166.87      191.17      100.49      100.71      102.23      108.28      122.88      150.69    
  195.68      266.30      369.66      498.83      631.29      733.83      773.95      734.31      623.22      473.27    
  326.32      212.86      139.05      91.276      60.180      41.148      30.250      24.936      23.854      26.715    
  34.321      48.675      73.215      112.80      173.86      273.26      420.11      596.16      759.33      862.83    
  877.66      804.45      669.99      513.22      369.59      260.38      188.96      144.60      118.11      104.99    
  100.25      99.812      69.096      71.371      78.156      92.441      118.71      162.31      232.26      346.86    
  513.28      716.96      921.63      1078.2      1140.8      1085.2      922.73      698.52      473.24      295.32    
  181.09      114.91      73.780      49.150      35.418      28.863      27.488      30.841      40.046      57.906    
  89.205      140.60      227.51      377.41      596.15      852.25      1085.0      1230.7      1250.6      1145.1    
  949.46      716.85      498.72      329.30      218.04      152.06      111.35      87.665      75.407      70.151    
  52.937      56.269      66.055      85.632      120.24      176.89      273.98      436.62      670.05      949.56    
  1223.5      1427.5      1505.4      1430.0      1217.0      922.67      623.13      381.82      224.72      137.45    
  86.941      57.047      40.656      32.942      31.277      35.040      45.633      66.580      103.82      166.26    
  279.86      476.91      759.30      1085.0      1379.5      1566.2      1597.2      1470.0      1223.3      921.47    
  631.13      401.02      248.76      161.27      109.92      79.260      62.527      54.740      44.474      48.357    
  59.703      82.293      122.23      188.99      309.81      514.20      804.47      1145.2      1470.0      1702.9    
  1782.5      1684.0      1429.9      1085.1      734.17      448.57      259.94      155.51      97.940      64.115    
  45.688      37.062      35.144      39.171      50.721      73.767      114.91      185.13      316.56      542.60    
  862.81      1230.7      1566.2      1785.9      1834.6      1702.8      1427.4      1078.0      733.65      456.19    
  271.53      167.24      108.97      74.406      55.465      46.556      39.260      43.348      55.210      78.898    
  121.05      192.92      326.86      555.15      877.65      1250.6      1597.3      1834.6      1902.3      1782.4    
  1505.3      1140.6      773.77      475.37      276.77      165.91      105.39      69.837      50.439      41.343    
  39.260      43.348      55.210      78.898      121.05      192.92      326.86      555.15      877.65      1250.6    
  1597.3      1834.6      1902.3      1782.4      1505.3      1140.6      773.77      475.37      276.77      165.91    
  105.39      69.837      50.439      41.343      35.144      39.171      50.721      73.767      114.91      185.13    
  316.56      542.60      862.81      1230.7      1566.2      1785.9      1834.6      1702.8      1427.4      1078.0    
  733.65      456.19      271.53      167.24      108.97      74.406      55.465      46.556      44.474      48.357    
  59.703      82.293      122.23      188.99      309.81      514.20      804.47      1145.2      1470.0      1702.9    
  1782.5      1684.0      1429.9      1085.1      734.17      448.57      259.94      155.51      97.940      64.115    
  45.688      37.062      31.277      35.040      45.633      66.580      103.82      166.26      279.86      476.91    
  759.30      1085.0      1379.5      1566.2      1597.2      1470.0      1223.3      921.47      631.13      401.02    
  248.76      161.27      109.92      79.260      62.527      54.740      52.937      56.269      66.055      85.632    
  120.24      176.89      273.98      436.62      670.05      949.56      1223.5      1427.5      1505.4      1430.0    
  1217.0      922.67      623.13      381.82      224.72      137.45      86.941      57.047      40.656      32.942    
  27.488      30.841      40.046      57.906      89.205      140.60      227.51      377.41      596.15      852.25    
  1085.0      1230.7      1250.6      1145.1      949.46      716.85      498.72      329.30      218.04      152.06    
  111.35      87.665      75.407      70.151      69.096      71.371      78.156      92.441      118.71      162.31    
  232.26      346.86      513.28      716.96      921.63      1078.2      1140.8      1085.2      922.73      698.52    
  473.24      295.32      181.09      114.91      73.780      49.150      35.418      28.863      23.854      26.715    
  34.321      48.675      73.215      112.80      173.86      273.26      420.11      596.16      759.33      862.83    
  877.66      804.45      669.99      513.22      369.59      260.38      188.96      144.60      118.11      104.99    
  100.25      99.812      100.49      100.71      102.23      108.28      122.88      150.69      195.68      266.30    
  369.66      498.83      631.29      733.83      773.95      734.31      623.22      473.27      326.32      212.86    
  139.05      91.276      60.180      41.148      30.250      24.936      20.440      22.786      28.806      39.775    
  57.886      86.292      128.25      188.02      273.27      377.43      476.94      542.63      555.17      514.20    
  436.60      346.83      266.27      206.39      167.33      144.51      136.08      144.05      166.87      191.17    
  201.62      191.71      168.09      146.06      138.81      147.55      169.73      206.42      260.43      329.39    
  401.15      456.33      475.52      448.70      381.90      295.36      212.87      148.89      102.70      69.634    
  47.597      33.657      25.389      21.253      17.293      19.156      23.768      31.849      44.622      63.867    
  91.486      128.25      173.87      227.52      279.89      316.59      326.88      309.82      273.98      232.25    
  195.66      169.71      156.08      158.66      197.03      279.43      384.21      471.78      505.78      471.82    
  384.56      280.29      198.26      159.73      156.10      167.36      189.00      218.10      248.84      271.63    
  276.86      260.03      224.78      181.12      139.07      102.70      73.378      51.814      36.924      27.089    
  21.010      17.884      14.520      15.957      19.408      25.224      33.987      46.557      63.869      86.297    
  112.81      140.61      166.28      185.15      192.94      189.00      176.89      162.30      150.68      147.53    
  159.71      222.52      371.68      596.81      842.47      1032.6      1103.9      1032.1      841.99      596.75    
  371.95      222.53      158.67      144.53      144.63      152.10      161.31      167.29      165.96      155.56    
  137.48      114.94      91.291      69.642      51.817      38.251      28.449      21.648      17.260      14.943    
  12.241      13.313      15.833      19.950      25.888      33.988      44.624      57.891      73.222      89.215    
  103.83      114.92      121.06      122.24      120.24      118.71      122.87      138.79      198.22      371.91    
  689.65      1111.7      1540.6      1859.4      1976.7      1858.6      1539.7      1111.4      689.66      371.65    
  197.01      136.09      118.12      111.37      109.95      109.00      105.42      97.970      86.965      73.798    
  60.191      47.603      36.927      28.450      22.023      17.353      14.229      12.545      10.500      11.267    
  13.059      15.930      19.950      25.225      31.851      39.779      48.680      57.913      66.588      73.774    
  78.904      82.296      85.631      92.435      108.27      146.03      280.22      596.66      1111.3      1749.8    
  2371.8      2822.5      2986.5      2821.9      2371.2      1749.8      1111.7      596.71      279.36      144.03    
  104.99      87.674      79.275      74.425      69.856      64.133      57.063      49.162      41.156      33.662    
  27.092      21.650      17.354      14.134      11.931      10.723      9.2669      9.7961      11.055      13.059    
  15.834      19.409      23.770      28.809      34.325      40.050      45.638      50.727      55.215      59.705    
  66.053      78.147      102.21      168.03      384.44      841.82      1539.6      2371.1      3159.7      3721.6    
  3924.6      3721.4      3159.6      2371.7      1540.4      842.30      384.09      166.81      100.24      75.406    
  62.533      55.475      50.450      45.699      40.666      35.425      30.256      25.393      21.013      17.262    
  14.230      11.931      10.342      9.4527      8.5162      8.8781      9.7962      11.267      13.314      15.958    
  19.157      22.788      26.718      30.845      35.044      39.175      43.351      48.359      56.266      71.361    
  100.69      191.63      471.65      1031.9      1858.4      2821.7      3721.3      4356.1      4584.4      4356.1    
  3721.5      2822.3      1859.1      1032.4      471.61      191.09      99.793      70.144      54.741      46.561    
  41.349      37.069      32.948      28.868      24.940      21.256      17.886      14.945      12.545      10.724    
  9.4528      8.7130      8.2614      8.5162      9.2670      10.501      12.242      14.521      17.295      20.443    
  23.858      27.492      31.281      35.149      39.264      44.477      52.935      69.086      100.46      201.54    
  505.59      1103.6      1976.4      2986.3      3924.5      4584.4      4821.3      4584.4      3924.5      2986.3    
  1976.4      1103.6      505.59      201.54      100.46      69.086      52.935      44.477      39.264      35.149    
  31.281      27.492      23.858      20.443      17.295      14.521      12.242      10.501      9.2670      8.5162    
  8.5162      8.7130      9.4528      10.724      12.545      14.945      17.886      21.256      24.940      28.868    
  32.948      37.069      41.349      46.561      54.741      70.144      99.793      191.09      471.61      1032.4    
  1859.1      2822.3      3721.5      4356.1      4584.4      4356.1      3721.3      2821.7      1858.4      1031.9    
  471.65      191.63      100.69      71.361      56.266      48.359      43.351      39.175      35.044      30.845    
  26.718      22.788      19.157      15.958      13.314      11.267      9.7962      8.8781      9.2669      9.4527    
  10.342      11.931      14.230      17.262      21.013      25.393      30.256      35.425      40.666      45.699    
  50.450      55.475      62.533      75.406      100.24      166.81      384.09      842.30      1540.4      2371.7    
  3159.6      3721.4      3924.6      3721.6      3159.7      2371.1      1539.6      841.82      384.44      168.03    
  102.21      78.147      66.053      59.705      55.215      50.727      45.638      40.050      34.325      28.809    
  23.770      19.409      15.834      13.059      11.055      9.7961      10.500      10.723      11.931      14.134    
  17.354      21.650      27.092      33.662      41.156      49.162      57.063      64.133      69.856      74.425    
  79.275      87.674      104.99      144.03      279.36      596.71      1111.7      1749.8      2371.2      2821.9    
  2986.5      2822.5      2371.8      1749.8      1111.3      596.66      280.22      146.03      108.27      92.435    
  85.631      82.296      78.904      73.774      66.588      57.913      48.680      39.779      31.851      25.225    
  19.950      15.930      13.059      11.267      12.241      12.545      14.229      17.353      22.023      28.450    
  36.927      47.603      60.191      73.798      86.965      97.970      105.42      109.00      109.95      111.37    
  118.12      136.09      197.01      371.65      689.66      1111.4      1539.7      1858.6      1976.7      1859.4    
  1540.6      1111.7      689.65      371.91      198.22      138.79      122.87      118.71      120.24      122.24    
  121.06      114.92      103.83      89.215      73.222      57.891      44.624      33.988      25.888      19.950    
  15.833      13.313      14.520      14.943      17.260      21.648      28.449      38.251      51.817      69.642    
  91.291      114.94      137.48      155.56      165.96      167.29      161.31      152.10      144.63      144.53    
  158.67      222.53      371.95      596.75      841.99      1032.1      1103.9      1032.6      842.47      596.81    
  371.68      222.52      159.71      147.53      150.68      162.30      176.89      189.00      192.94      185.15    
  166.28      140.61      112.81      86.297      63.869      46.557      33.987      25.224      19.408      15.957    
  17.293      17.884      21.010      27.089      36.924      51.814      73.378      102.70      139.07      181.12    
  224.78      260.03      276.86      271.63      248.84      218.10      189.00      167.36      156.10      159.73    
  198.26      280.29      384.56      471.82      505.78      471.78      384.21      279.43      197.03      158.66    
  156.08      169.71      195.66      232.25      273.98      309.82      326.88      316.59      279.89      227.52    
  173.87      128.25      91.486      63.867      44.622      31.849      23.768      19.156      20.440      21.253    
  25.389      33.657      47.597      69.634      102.70      148.89      212.87      295.36      381.90      448.70    
  475.52      456.33      401.15      329.39      260.43      206.42      169.73      147.55      138.81      146.06    
  168.09      191.71      201.62      191.17      166.87      144.05      136.08      144.51      167.33      206.39    
  266.27      346.83      436.60      514.20      555.17      542.63      476.94      377.43      273.27      188.02    
  128.25      86.292      57.886      39.775      28.806      22.786      23.854      24.936      30.250      41.148    
  60.180      91.276      139.05      212.86      326.32      473.27      623.22      734.31      773.95      733.83    
  631.29      498.83      369.66      266.30      195.68      150.69      122.88      108.28      102.23      100.71    
  100.49      99.812      100.25      104.99      118.11      144.60      188.96      260.38      369.59      513.22    
  669.99      804.45      877.66      862.83      759.33      596.16      420.11      273.26      173.86      112.80    
  73.215      48.675      34.321      26.715      27.488      28.863      35.418      49.150      73.780      114.91    
  181.09      295.32      473.24      698.52      922.73      1085.2      1140.8      1078.2      921.63      716.96    
  513.28      346.86      232.26      162.31      118.71      92.441      78.156      71.371      69.096      70.151    
  75.407      87.665      111.35      152.06      218.04      329.30      498.72      716.85      949.46      1145.1    
  1250.6      1230.7      1085.0      852.25      596.15      377.41      227.51      140.60      89.205      57.906    
  40.046      30.841      31.277      32.942      40.656      57.047      86.941      137.45      224.72      381.82    
  623.13      922.67      1217.0      1430.0      1505.4      1427.5      1223.5      949.56      670.05      436.62    
  273.98      176.89      120.24      85.632      66.055      56.269      52.937      54.740      62.527      79.260    
  109.92      161.27      248.76      401.02      631.13      921.47      1223.3      1470.0      1597.2      1566.2    
  1379.5      1085.0      759.30      476.91      279.86      166.26      103.82      66.580      45.633      35.040    
  35.144      37.062      45.688      64.115      97.940      155.51      259.94      448.57      734.17      1085.1    
  1429.9      1684.0      1782.5      1702.9      1470.0      1145.2      804.47      514.20      309.81      188.99    
  122.23      82.293      59.703      48.357      44.474      46.556      55.465      74.406      108.97      167.24    
  271.53      456.19      733.65      1078.0      1427.4      1702.8      1834.6      1785.9      1566.2      1230.7    
  862.81      542.60      316.56      185.13      114.91      73.767      50.721      39.171      39.260      41.343    
  50.439      69.837      105.39      165.91      276.77      475.37      773.77      1140.6      1505.3      1782.4    
  1902.3      1834.6      1597.3      1250.6      877.65      555.15      326.86      192.92      121.05      78.898    
  55.210      43.348      39.260      41.343      50.439      69.837      105.39      165.91      276.77      475.37    
  773.77      1140.6      1505.3      1782.4      1902.3      1834.6      1597.3      1250.6      877.65      555.15    
  326.86      192.92      121.05      78.898      55.210      43.348      44.474      46.556      55.465      74.406    
  108.97      167.24      271.53      456.19      733.65      1078.0      1427.4      1702.8      1834.6      1785.9    
  1566.2      1230.7      862.81      542.60      316.56      185.13      114.91      73.767      50.721      39.171    
  35.144      37.062      45.688      64.115      97.940      155.51      259.94      448.57      734.17      1085.1    
  1429.9      1684.0      1782.5      1702.9      1470.0      1145.2      804.47      514.20      309.81      188.99    
  122.23      82.293      59.703      48.357      52.937      54.740      62.527      79.260      109.92      161.27    
  248.76      401.02      631.13      921.47      1223.3      1470.0      1597.2      1566.2      1379.5      1085.0    
  759.30      476.91      279.86      166.26      103.82      66.580      45.633      35.040      31.277      32.942    
  40.656      57.047      86.941      137.45      224.72      381.82      623.13      922.67      1217.0      1430.0    
  1505.4      1427.5      1223.5      949.56      670.05      436.62      273.98      176.89      120.24      85.632    
  66.055      56.269      69.096      70.151      75.407      87.665      111.35      152.06      218.04      329.30    
  498.72      716.85      949.46      1145.1      1250.6      1230.7      1085.0      852.25      596.15      377.41    
  227.51      140.60      89.205      57.906      40.046      30.841      27.488      28.863      35.418      49.150    
  73.780      114.91      181.09      295.32      473.24      698.52      922.73      1085.2      1140.8      1078.2    
  921.63      716.96      513.28      346.86      232.26      162.31      118.71      92.441      78.156      71.371    
  100.49      99.812      100.25      104.99      118.11      144.60      188.96      260.38      369.59      513.22    
  669.99      804.45      877.66      862.83      759.33      596.16      420.11      273.26      173.86      112.80    
  73.215      48.675      34.321      26.715      23.854      24.936      30.250      41.148      60.180      91.276    
  139.05      212.86      326.32      473.27      623.22      734.31      773.95      733.83      631.29      498.83    
  369.66      266.30      195.68      150.69      122.88      108.28      102.23      100.71      201.62      191.17    
  166.87      144.05      136.08      144.51      167.33      206.39      266.27      346.83      436.60      514.20    
  555.17      542.63      476.94      377.43      273.27      188.02      128.25      86.292      57.886      39.775    
  28.806      22.786      20.440      21.253      25.389      33.657      47.597      69.634      102.70      148.89    
  212.87      295.36      381.90      448.70      475.52      456.33      401.15      329.39      260.43      206.42    
  169.73      147.55      138.81      146.06      168.09      191.71      505.78      471.78      384.21      279.43    
  197.03      158.66      156.08      169.71      195.66      232.25      273.98      309.82      326.88      316.59    
  279.89      227.52      173.87      128.25      91.486      63.867      44.622      31.849      23.768      19.156    
  17.293      17.884      21.010      27.089      36.924      51.814      73.378      102.70      139.07      181.12    
  224.78      260.03      276.86      271.63      248.84      218.10      189.00      167.36      156.10      159.73    
  198.26      280.29      384.56      471.82      1103.9      1032.6      842.47      596.81      371.68      222.52    
  159.71      147.53      150.68      162.30      176.89      189.00      192.94      185.15      166.28      140.61    
  112.81      86.297      63.869      46.557      33.987      25.224      19.408      15.957      14.520      14.943    
  17.260      21.648      28.449      38.251      51.817      69.642      91.291      114.94      137.48      155.56    
  165.96      167.29      161.31      152.10      144.63      144.53      158.67      222.53      371.95      596.75    
  841.99      1032.1      1976.7      1859.4      1540.6      1111.7      689.65      371.91      198.22      138.79    
  122.87      118.71      120.24      122.24      121.06      114.92      103.83      89.215      73.222      57.891    
  44.624      33.988      25.888      19.950      15.833      13.313      12.241      12.545      14.229      17.353    
  22.023      28.450      36.927      47.603      60.191      73.798      86.965      97.970      105.42      109.00    
  109.95      111.37      118.12      136.09      197.01      371.65      689.66      1111.4      1539.7      1858.6    
  2986.5      2822.5      2371.8      1749.8      1111.3      596.66      280.22      146.03      108.27      92.435    
  85.631      82.296      78.904      73.774      66.588      57.913      48.680      39.779      31.851      25.225    
  19.950      15.930      13.059      11.267      10.500      10.723      11.931      14.134      17.354      21.650    
  27.092      33.662      41.156      49.162      57.063      64.133      69.856      74.425      79.275      87.674    
  104.99      144.03      279.36      596.71      1111.7      1749.8      2371.2      2821.9      3924.6      3721.6    
  3159.7      2371.1      1539.6      841.82      384.44      168.03      102.21      78.147      66.053      59.705    
  55.215      50.727      45.638      40.050      34.325      28.809      23.770      19.409      15.834      13.059    
  11.055      9.7961      9.2669      9.4527      10.342      11.931      14.230      17.262      21.013      25.393    
  30.256      35.425      40.666      45.699      50.450      55.475      62.533      75.406      100.24      166.81    
  384.09      842.30      1540.4      2371.7      3159.6      3721.4      4584.4      4356.1      3721.3      2821.7    
  1858.4      1031.9      471.65      191.63      100.69      71.361      56.266      48.359      43.351      39.175    
  35.044      30.845      26.718      22.788      19.157      15.958      13.314      11.267      9.7962      8.8781    
  8.5162      8.7130      9.4528      10.724      12.545      14.945      17.886      21.256      24.940      28.868    
  32.948      37.069      41.349      46.561      54.741      70.144      99.793      191.09      471.61      1032.4    
  1859.1      2822.3      3721.5      4356.1      4609.8      4380.3      3742.4      2838.2      1869.5      1037.7    
  473.03      189.96      97.471      67.503      51.970      43.806      38.739      34.715      30.929      27.223    
  23.668      20.325      17.248      14.543      12.324      10.628      9.4295      8.7034      8.4565      8.6973    
  9.4162      10.606      12.290      14.496      17.186      20.248      23.575      27.114      30.807      34.583    
  38.602      43.669      51.839      67.385      97.374      189.90      473.05      1037.8      1869.7      2838.3    
  3742.4      4380.3      4380.4      4159.5      3546.4      2680.5      1757.4      970.16      441.22      180.45    
  96.943      68.551      53.740      45.843      40.776      36.592      32.560      28.572      24.730      21.124    
  17.829      14.958      12.619      10.844      9.6071      8.8906      8.7001      9.0462      9.9302      11.354    
  13.338      15.902      19.008      22.539      26.363      30.377      34.462      38.489      42.562      47.429    
  55.067      69.595      97.704      180.91      441.29      969.83      1756.8      2680.1      3546.3      4159.5    