   20   20   99    2
  0.1178973E+02  0.5499594E-09  0.5499200E-09  0.7796573E-09  0.5000000E-15
  1.000000000000000E-004
  CAR 
 unknown system                          
    168      8    110
 
  0.1250000E+00  0.1250000E+00  0.1250000E+00  0.1250000E+00
    1      -54.433522    -50.149715   1.000000   1.000000
    2      -54.433520    -50.149663   1.000000   1.000000
    3      -54.433335    -50.149392   1.000000   1.000000
    4      -54.433266    -50.149297   1.000000   1.000000
    5      -54.432283    -50.147788   1.000000   1.000000
    6      -54.432176    -50.147546   1.000000   1.000000
    7      -54.432034    -50.147489   1.000000   1.000000
    8      -54.431898    -50.147256   1.000000   1.000000
    9      -54.418558    -50.118127   1.000000   1.000000
   10      -54.418376    -50.118100   1.000000   1.000000
   11      -54.417294    -50.116156   1.000000   1.000000
   12      -54.416957    -50.115787   1.000000   1.000000
   13      -29.841972    -29.836843   1.000000   1.000000
   14      -29.819535    -29.814565   1.000000   1.000000
   15      -29.801946    -29.797090   1.000000   1.000000
   16      -29.783999    -29.779333   1.000000   1.000000
   17      -15.286722    -15.146974   1.000000   1.000000
   18      -15.281921    -15.121755   1.000000   1.000000
   19      -14.744091    -14.572451   1.000000   1.000000
   20      -14.333431    -14.232747   1.000000   1.000000
   21      -14.171030    -14.032598   1.000000   1.000000
   22      -14.167081    -13.979753   1.000000   1.000000
   23      -14.106231    -13.954909   1.000000   1.000000
   24      -14.089740    -13.914874   1.000000   1.000000
   25      -14.087647    -13.873343   1.000000   1.000000
   26      -14.048000    -13.733245   1.000000   1.000000
   27      -14.024844    -13.648555   1.000000   1.000000
   28      -14.015112    -13.646107   1.000000   1.000000
   29      -12.138275    -12.116036   1.000000   1.000000
   30      -12.063308    -12.036558   1.000000   1.000000
   31      -12.035858    -12.011988   1.000000   1.000000
   32      -11.896110    -11.887002   1.000000   1.000000
   33      -11.885037    -11.869601   1.000000   1.000000
   34      -11.843182    -11.831816   1.000000   1.000000
   35      -11.822321    -11.812033   1.000000   1.000000
   36      -11.810944    -11.794201   1.000000   1.000000
   37      -11.810858    -11.791374   1.000000   1.000000
   38      -11.640897    -11.619971   1.000000   1.000000
   39      -11.602040    -11.573523   1.000000   1.000000
   40      -11.457518    -11.414527   1.000000   1.000000
   41       -5.351905     -3.401123   1.000000   1.000000
   42       -5.275223     -2.746613   1.000000   1.000000
   43       -5.202968     -2.150732   1.000000   1.000000
   44       -5.100375     -1.545013   1.000000   1.000000
   45       -4.806998     -1.542310   1.000000   1.000000
   46       -4.681875     -1.506147   1.000000   1.000000
   47       -4.660353     -1.468546   1.000000   1.000000
   48       -4.619035     -1.389326   1.000000   1.000000
   49       -4.596430     -1.203600   1.000000   1.000000
   50       -4.435428     -1.183058   1.000000   1.000000
   51       -4.424645     -1.175553   1.000000   1.000000
   52       -4.402409     -1.075717   1.000000   1.000000
   53       -4.356145     -0.900707   1.000000   1.000000
   54       -4.163156     -0.727250   1.000000   1.000000
   55       -4.158161     -0.674121   1.000000   1.000000
   56       -4.157801     -0.642366   1.000000   1.000000
   57       -4.113886     -0.326519   1.000000   1.000000
   58       -3.636431      0.017343   1.000000   1.000000
   59       -3.192815      0.276402   1.000000   1.000000
   60       -3.034783      0.513415   1.000000   1.000000
   61       -2.641452      0.659565   1.000000   1.000000
   62       -1.290000      1.192828   1.000000   1.000000
   63       -1.217724      1.230185   1.000000   1.000000
   64       -1.147184      1.267982   1.000000   1.000000
   65       -1.135327      1.377250   1.000000   1.000000
   66       -0.867304      1.420648   1.000000   1.000000
   67       -0.627059      1.444494   1.000000   1.000000
   68        0.032549      1.492108   1.000000   1.000000
   69        0.087828      1.556300   1.000000   1.000000
   70        0.323673      1.692360   1.000000   1.000000
   71        0.624044      1.979607   1.000000   1.000000
   72        0.660618      1.990906   1.000000   1.000000
   73        0.759456      2.508107   1.000000   1.000000
   74        0.761626      2.519072   1.000000   1.000000
   75        0.861706      2.534340   1.000000   1.000000
   76        0.917610      2.692123   1.000000  -0.010282
   77        1.231153      3.932411   1.000000   0.000000
   78        1.237781      4.106885   1.000000   0.000000
   79        1.281890      4.146597   1.000000   0.000000
   80        1.362912      4.153151   1.000000   0.000000
   81        1.392654      4.403237   1.000000   0.000000
   82        1.408102      4.555313   1.000000   0.000000
   83        1.451536      4.748854   1.000000   0.000000
   84        1.616961      5.012153   1.000000   0.000000
   85        1.695123      5.112933   1.000000   0.000000
   86        1.787283      5.137222   1.000000   0.000000
   87        2.005682      5.139925   1.000000   0.000000
   88        2.125991      5.177618   1.000000   0.000000
   89        2.296906      5.310874   1.000000   0.000000
   90        2.342824      5.446673   1.000000   0.000000
   91        2.350323      5.452082   1.000000   0.000000
   92        2.425128      5.500007   1.006303   0.000000
   93        2.491624      6.173853   0.720731   0.000000
   94        3.774225      7.322836  -0.005899   0.000000
   95        3.941405      7.464780   0.000000   0.000000
   96        4.100583      7.660062   0.000000   0.000000
   97        8.560644      8.611843   0.000000   0.000000
   98        8.601412      8.652839   0.000000   0.000000
   99        9.283163      9.453998   0.000000   0.000000
  100        9.892062      9.975904   0.000000   0.000000
  101       10.011457     10.098900   0.000000   0.000000
  102       10.012700     10.101751   0.000000   0.000000
  103       10.115736     10.201278   0.000000   0.000000
  104       10.418869     10.477557   0.000000   0.000000
  105       10.814405     10.885632   0.000000   0.000000
  106       10.858841     11.017663   0.000000   0.000000
  107       10.914573     11.111790   0.000000   0.000000
  108       10.928944     11.194485   0.000000   0.000000
  109       11.118596     11.246723   0.000000   0.000000
  110       11.755000     11.473440   0.000000   0.000000
 
  0.3750000E+00  0.1250000E+00  0.1250000E+00  0.1250000E+00
    1      -54.433330    -50.149384   1.000000   1.000000
    2      -54.433287    -50.149363   1.000000   1.000000
    3      -54.432831    -50.148643   1.000000   1.000000
    4      -54.432703    -50.148493   1.000000   1.000000
    5      -54.432698    -50.148469   1.000000   1.000000
    6      -54.432572    -50.148322   1.000000   1.000000
    7      -54.432202    -50.147705   1.000000   1.000000
    8      -54.432060    -50.147521   1.000000   1.000000
    9      -54.418416    -50.118055   1.000000   1.000000
   10      -54.418333    -50.118043   1.000000   1.000000
   11      -54.417091    -50.115981   1.000000   1.000000
   12      -54.417079    -50.115928   1.000000   1.000000
   13      -29.829623    -29.824587   1.000000   1.000000
   14      -29.813045    -29.808122   1.000000   1.000000
   15      -29.808774    -29.803875   1.000000   1.000000
   16      -29.794056    -29.789283   1.000000   1.000000
   17      -15.239425    -15.096475   1.000000   1.000000
   18      -15.064653    -14.910081   1.000000   1.000000
   19      -15.004315    -14.854172   1.000000   1.000000
   20      -14.550954    -14.417628   1.000000   1.000000
   21      -14.246779    -14.094890   1.000000   1.000000
   22      -14.224296    -14.080228   1.000000   1.000000
   23      -14.208251    -14.067758   1.000000   1.000000
   24      -14.149062    -13.896160   1.000000   1.000000
   25      -14.061227    -13.863922   1.000000   1.000000
   26      -14.042152    -13.741003   1.000000   1.000000
   27      -14.035419    -13.710364   1.000000   1.000000
   28      -14.031909    -13.664177   1.000000   1.000000
   29      -12.024738    -12.005394   1.000000   1.000000
   30      -11.911243    -11.895904   1.000000   1.000000
   31      -11.875217    -11.859791   1.000000   1.000000
   32      -11.853136    -11.840208   1.000000   1.000000
   33      -11.848434    -11.818882   1.000000   1.000000
   34      -11.820497    -11.796824   1.000000   1.000000
   35      -11.741906    -11.718823   1.000000   1.000000
   36      -11.716799    -11.689776   1.000000   1.000000
   37      -11.683640    -11.660241   1.000000   1.000000
   38      -11.628067    -11.594115   1.000000   1.000000
   39      -11.570950    -11.538326   1.000000   1.000000
   40      -11.559783    -11.527298   1.000000   1.000000
   41       -5.248545     -2.958963   1.000000   1.000000
   42       -5.142283     -2.454352   1.000000   1.000000
   43       -4.945852     -2.360294   1.000000   1.000000
   44       -4.822338     -1.843854   1.000000   1.000000
   45       -4.696628     -1.486333   1.000000   1.000000
   46       -4.607836     -1.377141   1.000000   1.000000
   47       -4.585648     -1.358494   1.000000   1.000000
   48       -4.527017     -1.225695   1.000000   1.000000
   49       -4.517455     -1.215594   1.000000   1.000000
   50       -4.426336     -1.122579   1.000000   1.000000
   51       -4.372363     -1.116600   1.000000   1.000000
   52       -4.333407     -1.036661   1.000000   1.000000
   53       -4.319948     -0.961160   1.000000   1.000000
   54       -4.284950     -0.952401   1.000000   1.000000
   55       -4.260912     -0.849198   1.000000   1.000000
   56       -4.182311     -0.479092   1.000000   1.000000
   57       -4.160840     -0.391678   1.000000   1.000000
   58       -4.060718     -0.091285   1.000000   1.000000
   59       -4.005939      0.249408   1.000000   1.000000
   60       -3.135155      0.343576   1.000000   1.000000
   61       -2.927233      0.450558   1.000000   1.000000
   62       -1.836362      0.685065   1.000000   1.000000
   63       -1.492973      0.726363   1.000000   1.000000
   64       -1.334440      1.108555   1.000000   1.000000
   65       -0.653523      1.161602   1.000000   1.000000
   66       -0.179040      1.374655   1.000000   1.000000
   67        0.136317      1.391432   1.000000   1.000000
   68        0.185828      1.510311   1.000000   1.000000
   69        0.271415      1.546755   1.000000   1.000000
   70        0.326425      1.678429   1.000000   1.000000
   71        0.425642      1.736768   1.000000   1.000000
   72        0.697454      1.967557   1.000000   1.000000
   73        0.729764      2.032616   1.000000   1.000000
   74        0.756679      2.089161   1.000000   1.000000
   75        0.772035      2.112743   1.000000   1.000000
   76        0.873670      2.537389   1.000000   0.899357
   77        0.889244      4.177740   1.000000   0.000000
   78        0.938772      4.582081   1.000000   0.000000
   79        1.197488      4.633472   1.000000   0.000000
   80        1.262678      4.637420   1.000000   0.000000
   81        1.301607      4.683667   1.000000   0.000000
   82        1.484101      4.748434   1.000000   0.000000
   83        1.529332      4.954382   1.000000   0.000000
   84        1.674012      5.040108   1.000000   0.000000
   85        1.688148      5.099239   1.000000   0.000000
   86        1.859907      5.142221   1.000000   0.000000
   87        1.936570      5.182483   1.000000   0.000000
   88        1.946151      5.190041   1.000000   0.000000
   89        1.966877      5.271145   1.000000   0.000000
   90        2.023969      5.302590   1.000000   0.000000
   91        2.340538      5.367778   1.000000   0.000000
   92        2.399365      5.565240   1.024405   0.000000
   93        2.822977      6.387916  -0.035205   0.000000
   94        3.174264      6.636605  -0.026324   0.000000
   95        3.231851      6.815068   0.000000   0.000000
   96        3.847418      7.411132   0.000000   0.000000
   97        9.358827      9.440643   0.000000   0.000000
   98        9.457431      9.515099   0.000000   0.000000
   99       10.255161     10.352446   0.000000   0.000000
  100       10.326338     10.480890   0.000000   0.000000
  101       10.422123     10.498220   0.000000   0.000000
  102       10.555427     10.638687   0.000000   0.000000
  103       10.688945     10.808655   0.000000   0.000000
  104       10.802687     10.905103   0.000000   0.000000
  105       10.850990     10.931849   0.000000   0.000000
  106       10.912109     11.066087   0.000000   0.000000
  107       11.135811     11.237157   0.000000   0.000000
  108       11.197843     11.302776   0.000000   0.000000
  109       11.439730     11.393603   0.000000   0.000000
  110       11.687649     11.800731   0.000000   0.000000
 
  0.1250000E+00  0.3750000E+00  0.1250000E+00  0.1250000E+00
    1      -54.433334    -50.149384   1.000000   1.000000
    2      -54.433273    -50.149363   1.000000   1.000000
    3      -54.432818    -50.148643   1.000000   1.000000
    4      -54.432718    -50.148493   1.000000   1.000000
    5      -54.432699    -50.148469   1.000000   1.000000
    6      -54.432567    -50.148322   1.000000   1.000000
    7      -54.432215    -50.147706   1.000000   1.000000
    8      -54.432059    -50.147521   1.000000   1.000000
    9      -54.418416    -50.118055   1.000000   1.000000
   10      -54.418333    -50.118043   1.000000   1.000000
   11      -54.417091    -50.115981   1.000000   1.000000
   12      -54.417079    -50.115928   1.000000   1.000000
   13      -29.829622    -29.824586   1.000000   1.000000
   14      -29.813045    -29.808121   1.000000   1.000000
   15      -29.808774    -29.803875   1.000000   1.000000
   16      -29.794055    -29.789283   1.000000   1.000000
   17      -15.239393    -15.096438   1.000000   1.000000
   18      -15.064591    -14.910005   1.000000   1.000000
   19      -15.004238    -14.854096   1.000000   1.000000
   20      -14.550756    -14.417430   1.000000   1.000000
   21      -14.247035    -14.095165   1.000000   1.000000
   22      -14.224313    -14.080218   1.000000   1.000000
   23      -14.208148    -14.067771   1.000000   1.000000
   24      -14.149299    -13.896319   1.000000   1.000000
   25      -14.061430    -13.864199   1.000000   1.000000
   26      -14.042354    -13.741138   1.000000   1.000000
   27      -14.035545    -13.710424   1.000000   1.000000
   28      -14.031911    -13.664330   1.000000   1.000000
   29      -12.024522    -12.005134   1.000000   1.000000
   30      -11.911030    -11.895669   1.000000   1.000000
   31      -11.874727    -11.859380   1.000000   1.000000
   32      -11.853042    -11.840119   1.000000   1.000000
   33      -11.848540    -11.818790   1.000000   1.000000
   34      -11.820720    -11.797148   1.000000   1.000000
   35      -11.741922    -11.718849   1.000000   1.000000
   36      -11.716791    -11.689778   1.000000   1.000000
   37      -11.683564    -11.660153   1.000000   1.000000
   38      -11.628037    -11.594076   1.000000   1.000000
   39      -11.570991    -11.538369   1.000000   1.000000
   40      -11.559761    -11.527272   1.000000   1.000000
   41       -5.248542     -2.958871   1.000000   1.000000
   42       -5.142285     -2.454277   1.000000   1.000000
   43       -4.945869     -2.360119   1.000000   1.000000
   44       -4.822360     -1.843577   1.000000   1.000000
   45       -4.696633     -1.486313   1.000000   1.000000
   46       -4.607855     -1.377206   1.000000   1.000000
   47       -4.585610     -1.358425   1.000000   1.000000
   48       -4.527038     -1.225662   1.000000   1.000000
   49       -4.517442     -1.215738   1.000000   1.000000
   50       -4.426347     -1.122603   1.000000   1.000000
   51       -4.372352     -1.116503   1.000000   1.000000
   52       -4.333383     -1.036633   1.000000   1.000000
   53       -4.319882     -0.961135   1.000000   1.000000
   54       -4.284942     -0.952328   1.000000   1.000000
   55       -4.260907     -0.849107   1.000000   1.000000
   56       -4.182366     -0.479252   1.000000   1.000000
   57       -4.160839     -0.391643   1.000000   1.000000
   58       -4.060779     -0.091343   1.000000   1.000000
   59       -4.005907      0.249318   1.000000   1.000000
   60       -3.135128      0.344075   1.000000   1.000000
   61       -2.927164      0.450827   1.000000   1.000000
   62       -1.836193      0.685045   1.000000   1.000000
   63       -1.492906      0.726325   1.000000   1.000000
   64       -1.334447      1.108476   1.000000   1.000000
   65       -0.653473      1.161651   1.000000   1.000000
   66       -0.179181      1.377441   1.000000   1.000000
   67        0.136432      1.388337   1.000000   1.000000
   68        0.185871      1.509689   1.000000   1.000000
   69        0.271826      1.546690   1.000000   1.000000
   70        0.326585      1.678039   1.000000   1.000000
   71        0.425780      1.736531   1.000000   1.000000
   72        0.698275      1.967180   1.000000   1.000000
   73        0.729711      2.032508   1.000000   1.000000
   74        0.756249      2.089038   1.000000   1.000000
   75        0.772186      2.112470   1.000000   1.000000
   76        0.874098      2.537217   1.000000   0.899904
   77        0.889321      4.177756   1.000000   0.000000
   78        0.938167      4.582029   1.000000   0.000000
   79        1.197440      4.633454   1.000000   0.000000
   80        1.262733      4.637468   1.000000   0.000000
   81        1.301270      4.683711   1.000000   0.000000
   82        1.483779      4.748506   1.000000   0.000000
   83        1.529149      4.954450   1.000000   0.000000
   84        1.673700      5.040234   1.000000   0.000000
   85        1.688115      5.098951   1.000000   0.000000
   86        1.859730      5.142337   1.000000   0.000000
   87        1.936086      5.182514   1.000000   0.000000
   88        1.946077      5.190103   1.000000   0.000000
   89        1.966847      5.271153   1.000000   0.000000
   90        2.023962      5.302476   1.000000   0.000000
   91        2.340429      5.367782   1.000000   0.000000
   92        2.398958      5.565140   1.024443   0.000000
   93        2.822706      6.387884  -0.035070   0.000000
   94        3.174019      6.636532  -0.026318   0.000000
   95        3.231886      6.815092   0.000000   0.000000
   96        3.847392      7.411124   0.000000   0.000000
   97        9.358845      9.440779   0.000000   0.000000
   98        9.457359      9.514912   0.000000   0.000000
   99       10.255284     10.351852   0.000000   0.000000
  100       10.333291     10.472632   0.000000   0.000000
  101       10.423699     10.499519   0.000000   0.000000
  102       10.540752     10.636423   0.000000   0.000000
  103       10.702354     10.792041   0.000000   0.000000
  104       10.823666     10.897948   0.000000   0.000000
  105       10.847583     10.915295   0.000000   0.000000
  106       10.945011     11.025839   0.000000   0.000000
  107       11.171792     11.246192   0.000000   0.000000
  108       11.216350     11.275378   0.000000   0.000000
  109       11.477703     11.363143   0.000000   0.000000
  110       11.577513     11.626049   0.000000   0.000000
 
  0.3750000E+00  0.3750000E+00  0.1250000E+00  0.1250000E+00
    1      -54.433478    -50.149734   1.000000   1.000000
    2      -54.433329    -50.149569   1.000000   1.000000
    3      -54.433324    -50.149467   1.000000   1.000000
    4      -54.433258    -50.149342   1.000000   1.000000
    5      -54.432080    -50.147573   1.000000   1.000000
    6      -54.431971    -50.147398   1.000000   1.000000
    7      -54.431907    -50.147282   1.000000   1.000000
    8      -54.431838    -50.147130   1.000000   1.000000
    9      -54.418466    -50.118102   1.000000   1.000000
   10      -54.418434    -50.118096   1.000000   1.000000
   11      -54.417149    -50.116024   1.000000   1.000000
   12      -54.417030    -50.115909   1.000000   1.000000
   13      -29.824093    -29.819103   1.000000   1.000000
   14      -29.817225    -29.812282   1.000000   1.000000
   15      -29.804065    -29.799186   1.000000   1.000000
   16      -29.797963    -29.793137   1.000000   1.000000
   17      -15.314946    -15.149709   1.000000   1.000000
   18      -15.259564    -15.088009   1.000000   1.000000
   19      -14.796397    -14.635255   1.000000   1.000000
   20      -14.544137    -14.363860   1.000000   1.000000
   21      -14.350661    -14.234628   1.000000   1.000000
   22      -14.334986    -14.217351   1.000000   1.000000
   23      -14.249085    -14.040974   1.000000   1.000000
   24      -14.157356    -14.000918   1.000000   1.000000
   25      -14.110994    -13.935568   1.000000   1.000000
   26      -14.092352    -13.914800   1.000000   1.000000
   27      -14.015624    -13.627052   1.000000   1.000000
   28      -14.011178    -13.612071   1.000000   1.000000
   29      -11.870036    -11.856923   1.000000   1.000000
   30      -11.856694    -11.846520   1.000000   1.000000
   31      -11.855076    -11.843529   1.000000   1.000000
   32      -11.848050    -11.834440   1.000000   1.000000
   33      -11.798104    -11.790922   1.000000   1.000000
   34      -11.777190    -11.763694   1.000000   1.000000
   35      -11.667040    -11.644593   1.000000   1.000000
   36      -11.665506    -11.634902   1.000000   1.000000
   37      -11.628791    -11.598628   1.000000   1.000000
   38      -11.584709    -11.557906   1.000000   1.000000
   39      -11.475311    -11.428641   1.000000   1.000000
   40      -11.455044    -11.410711   1.000000   1.000000
   41       -5.355801     -2.873314   1.000000   1.000000
   42       -5.246291     -2.674251   1.000000   1.000000
   43       -5.164959     -2.252265   1.000000   1.000000
   44       -4.892187     -2.060070   1.000000   1.000000
   45       -4.816411     -1.541078   1.000000   1.000000
   46       -4.815106     -1.510874   1.000000   1.000000
   47       -4.784667     -1.501045   1.000000   1.000000
   48       -4.612746     -1.474505   1.000000   1.000000
   49       -4.476238     -1.192881   1.000000   1.000000
   50       -4.457731     -1.134461   1.000000   1.000000
   51       -4.451665     -1.119610   1.000000   1.000000
   52       -4.409111     -1.059213   1.000000   1.000000
   53       -4.399135     -0.720876   1.000000   1.000000
   54       -4.386406     -0.658103   1.000000   1.000000
   55       -4.345879     -0.416177   1.000000   1.000000
   56       -4.339780     -0.174396   1.000000   1.000000
   57       -4.165632     -0.094514   1.000000   1.000000
   58       -4.109798      0.156127   1.000000   1.000000
   59       -3.140815      0.177106   1.000000   1.000000
   60       -2.651237      0.195817   1.000000   1.000000
   61       -1.817534      0.430685   1.000000   1.000000
   62       -1.387023      0.635580   1.000000   1.000000
   63       -1.215412      0.684149   1.000000   1.000000
   64       -1.126398      0.941589   1.000000   1.000000
   65       -0.599868      1.033963   1.000000   1.000000
   66       -0.584738      1.124995   1.000000   1.000000
   67       -0.245140      1.170050   1.000000   1.000000
   68        0.030220      1.252397   1.000000   1.000000
   69        0.075849      1.419826   1.000000   1.000000
   70        0.080078      1.467545   1.000000   1.000000
   71        0.090311      1.475611   1.000000   1.000000
   72        0.640794      1.555489   1.000000   1.000000
   73        0.730634      1.663532   1.000000   1.000000
   74        0.835552      1.671656   1.000000   1.000000
   75        0.839451      2.495014   1.000000   1.000000
   76        0.897542      2.626433   1.000000   0.364511
   77        0.973921      3.985009   1.000000   0.000000
   78        1.117456      4.209064   1.000000   0.000000
   79        1.146103      4.404908   1.000000   0.000000
   80        1.192188      4.673674   1.000000   0.000000
   81        1.295549      4.954773   1.000000   0.000000
   82        1.399657      4.998846   1.000000   0.000000
   83        1.429195      5.022290   1.000000   0.000000
   84        1.463516      5.038590   1.000000   0.000000
   85        1.545701      5.118370   1.000000   0.000000
   86        1.550879      5.156529   1.000000   0.000000
   87        1.573429      5.168319   1.000000   0.000000
   88        1.662454      5.191225   1.000000   0.000000
   89        1.747596      5.192607   1.000000   0.000000
   90        1.750836      5.293084   1.000000   0.000000
   91        2.065909      5.386939   1.000000   0.000000
   92        2.290639      5.450412   1.007238   0.000000
   93        2.423990      5.860244   0.770555   0.000000
   94        2.464558      6.226181   0.409311   0.000000
   95        3.858141      7.416263   0.000000   0.000000
   96        4.094505      7.664084   0.000000   0.000000
   97        9.856339      9.934627   0.000000   0.000000
   98        9.995076     10.050754   0.000000   0.000000
   99       10.274945     10.359385   0.000000   0.000000
  100       10.527854     10.586550   0.000000   0.000000
  101       10.609532     10.640145   0.000000   0.000000
  102       10.706464     10.774404   0.000000   0.000000
  103       10.970142     11.017956   0.000000   0.000000
  104       10.989667     11.049268   0.000000   0.000000
  105       11.114051     11.198968   0.000000   0.000000
  106       11.328162     11.272234   0.000000   0.000000
  107       11.530592     11.754251   0.000000   0.000000
  108       11.689668     11.825650   0.000000   0.000000
  109       11.820672     11.877313   0.000000   0.000000
  110       12.084113     12.187123   0.000000   0.000000
 
  0.1250000E+00  0.1250000E+00  0.3750000E+00  0.1250000E+00
    1      -54.433481    -50.149652   1.000000   1.000000
    2      -54.433448    -50.149640   1.000000   1.000000
    3      -54.433370    -50.149395   1.000000   1.000000
    4      -54.433217    -50.149277   1.000000   1.000000
    5      -54.432246    -50.147744   1.000000   1.000000
    6      -54.432241    -50.147710   1.000000   1.000000
    7      -54.431987    -50.147349   1.000000   1.000000
    8      -54.431864    -50.147247   1.000000   1.000000
    9      -54.418092    -50.117585   1.000000   1.000000
   10      -54.417851    -50.117265   1.000000   1.000000
   11      -54.417583    -50.116736   1.000000   1.000000
   12      -54.417424    -50.116467   1.000000   1.000000
   13      -29.835412    -29.830329   1.000000   1.000000
   14      -29.826124    -29.821107   1.000000   1.000000
   15      -29.796707    -29.791906   1.000000   1.000000
   16      -29.789265    -29.784543   1.000000   1.000000
   17      -15.261898    -15.124826   1.000000   1.000000
   18      -15.259964    -15.113466   1.000000   1.000000
   19      -14.614945    -14.457102   1.000000   1.000000
   20      -14.395978    -14.255522   1.000000   1.000000
   21      -14.267417    -14.164728   1.000000   1.000000
   22      -14.166389    -14.059987   1.000000   1.000000
   23      -14.143834    -13.915956   1.000000   1.000000
   24      -14.130840    -13.870533   1.000000   1.000000
   25      -14.102803    -13.830935   1.000000   1.000000
   26      -14.045161    -13.810691   1.000000   1.000000
   27      -14.026190    -13.675705   1.000000   1.000000
   28      -14.022288    -13.659843   1.000000   1.000000
   29      -12.093254    -12.072438   1.000000   1.000000
   30      -11.955129    -11.939218   1.000000   1.000000
   31      -11.923760    -11.895683   1.000000   1.000000
   32      -11.881045    -11.871172   1.000000   1.000000
   33      -11.869782    -11.848397   1.000000   1.000000
   34      -11.857845    -11.846771   1.000000   1.000000
   35      -11.838615    -11.810004   1.000000   1.000000
   36      -11.820237    -11.798492   1.000000   1.000000
   37      -11.731280    -11.702288   1.000000   1.000000
   38      -11.718398    -11.694908   1.000000   1.000000
   39      -11.711437    -11.689536   1.000000   1.000000
   40      -11.558412    -11.518087   1.000000   1.000000
   41       -5.285144     -3.158301   1.000000   1.000000
   42       -5.276446     -2.884996   1.000000   1.000000
   43       -4.996957     -1.944096   1.000000   1.000000
   44       -4.770155     -1.624041   1.000000   1.000000
   45       -4.755516     -1.537787   1.000000   1.000000
   46       -4.690312     -1.529110   1.000000   1.000000
   47       -4.601110     -1.325543   1.000000   1.000000
   48       -4.578144     -1.305019   1.000000   1.000000
   49       -4.544320     -1.211730   1.000000   1.000000
   50       -4.497810     -1.202302   1.000000   1.000000
   51       -4.463408     -1.154866   1.000000   1.000000
   52       -4.348810     -1.110775   1.000000   1.000000
   53       -4.290462     -1.030455   1.000000   1.000000
   54       -4.242145     -0.973965   1.000000   1.000000
   55       -4.192932     -0.642391   1.000000   1.000000
   56       -4.160813     -0.511259   1.000000   1.000000
   57       -4.156205     -0.350239   1.000000   1.000000
   58       -3.758558     -0.176763   1.000000   1.000000
   59       -3.295964      0.066559   1.000000   1.000000
   60       -3.030457      0.666535   1.000000   1.000000
   61       -2.999703      0.745363   1.000000   1.000000
   62       -2.437655      0.867014   1.000000   1.000000
   63       -1.228342      1.105473   1.000000   1.000000
   64       -1.164422      1.287371   1.000000   1.000000
   65       -1.045108      1.483057   1.000000   1.000000
   66       -0.943594      1.561621   1.000000   1.000000
   67       -0.062505      1.573342   1.000000   1.000000
   68        0.199246      1.642151   1.000000   1.000000