 vasp.5.4.1 24Jun15 (build Jan 06 2016 13:10:00) complex                        
  
 executed on           IFC91_ompi date 2016.03.01  14:27:02
 running on    8 total cores
 distrk:  each k-point on    8 cores,    1 groups
 distr:  one band on NCORES_PER_BAND=   4 cores,    2 groups


--------------------------------------------------------------------------------------------------------


 INCAR:
 POTCAR:    PAW Sr                                
 POTCAR:    PAW Fe                                
 POTCAR:    PAW O_s                               
 POTCAR:    PAW Sr                                
   VRHFIN =Sr: 4s4p5s                                                           
   LEXCH  = 91                                                                  
   EATOM  =   843.6740 eV,   62.0083 Ry                                         
                                                                                
   TITEL  = PAW Sr                                                              
   LULTRA =        F    use ultrasoft PP ?                                      
   IUNSCR =        1    unscreen: 0-lin 1-nonlin 2-no                           
   RPACOR =    2.200    partial core radius                                     
   POMASS =   87.620; ZVAL   =   10.000    mass and valenz                      
   RCORE  =    2.500    outmost cutoff radius                                   
   RWIGS  =    4.040; RWIGS  =    2.138    wigner-seitz radius (au A)           
   ENMAX  =  226.196; ENMIN  =  169.647 eV                                      
   RCLOC  =    2.201    cutoff for local pot                                    
   LCOR   =        T    correct aug charges                                     
   LPAW   =        T    paw PP                                                  
   EAUG   =  366.804                                                            
   DEXC   =     .000                                                            
   RMAX   =    3.066    core radius for proj-oper                               
   RDEP   =    2.562    core radius for depl-charge                             
   QCUT   =   -4.077; QGAM   =    8.155    optimization parameters              
                                                                                
   Description                                                                  
     l     E      TYP  RCUT    TYP  RCUT                                        
     0   .000     23  2.500                                                     
     0   .000     23  2.500                                                     
     1   .000     23  2.500                                                     
     1   .000     23  2.500                                                     
     2   .000     23  2.500                                                     
     2   .000     23  2.500                                                     
  local pseudopotential read in
  partial core-charges read in
  atomic valenz-charges read in
  non local Contribution for L=           0  read in
    real space projection operators read in
  non local Contribution for L=           0  read in
    real space projection operators read in
  non local Contribution for L=           1  read in
    real space projection operators read in
  non local Contribution for L=           1  read in
    real space projection operators read in
  non local Contribution for L=           2  read in
    real space projection operators read in
  non local Contribution for L=           2  read in
    real space projection operators read in
    PAW grid and wavefunctions read in
 
   number of l-projection  operators is LMAX  =           6
   number of lm-projection operators is LMMAX =          18
 
 POTCAR:    PAW Fe                                
   VRHFIN =Fe:  3pd7s1                                                          
   LEXCH  = 91                                                                  
   EATOM  =  2459.3729 eV,  180.7588 Ry                                         
                                                                                
   TITEL  = PAW Fe                                                              
   LULTRA =        F    use ultrasoft PP ?                                      
   IUNSCR =        1    unscreen: 0-lin 1-nonlin 2-no                           
   RPACOR =    1.750    partial core radius                                     
   POMASS =   55.847; ZVAL   =   14.000    mass and valenz                      
   RCORE  =    2.200    outmost cutoff radius                                   
   RWIGS  =    2.200; RWIGS  =    1.164    wigner-seitz radius (au A)           
   ENMAX  =  293.258; ENMIN  =  219.944 eV                                      
   RCLOC  =    1.701    cutoff for local pot                                    
   LCOR   =        T    correct aug charges                                     
   LPAW   =        T    paw PP                                                  
   EAUG   =  578.342                                                            
   DEXC   =     .000                                                            
   RMAX   =    2.692    core radius for proj-oper                               
   RAUG   =    1.300    factor for augmentation sphere                          
   RDEP   =    2.296    core radius for depl-charge                             
   QCUT   =   -4.643; QGAM   =    9.285    optimization parameters              
                                                                                
   Description                                                                  
     l     E      TYP  RCUT    TYP  RCUT                                        
     1   .000     23  2.000                                                     
     1  -.400     23  2.000                                                     
     2   .000     23  2.200                                                     
     2   .000     23  2.200                                                     
     0   .000     23  2.000                                                     
     0  2.000     23  2.000                                                     
     3   .000      7   .000                                                     
  local pseudopotential read in
  partial core-charges read in
  atomic valenz-charges read in
  non local Contribution for L=           1  read in
    real space projection operators read in
  non local Contribution for L=           1  read in
    real space projection operators read in
  non local Contribution for L=           2  read in
    real space projection operators read in
  non local Contribution for L=           2  read in
    real space projection operators read in
  non local Contribution for L=           0  read in
    real space projection operators read in
  non local Contribution for L=           0  read in
    real space projection operators read in
    PAW grid and wavefunctions read in
 
   number of l-projection  operators is LMAX  =           6
   number of lm-projection operators is LMMAX =          18
 
 POTCAR:    PAW O_s                               
   VRHFIN =O: s2p4                                                              
   LEXCH  = 91                                                                  
   EATOM  =   433.0277 eV,   31.8266 Ry                                         
                                                                                
   TITEL  = PAW O_s                                                             
   LULTRA =        F    use ultrasoft PP ?                                      
   IUNSCR =        0    unscreen: 0-lin 1-nonlin 2-no                           
   RPACOR =     .000    partial core radius                                     
   POMASS =   16.000; ZVAL   =    6.000    mass and valenz                      
   RCORE  =    1.900    outmost cutoff radius                                   
   RWIGS  =    1.700; RWIGS  =     .900    wigner-seitz radius (au A)           
   ENMAX  =  250.000; ENMIN  =  202.667 eV                                      
   RCLOC  =    1.014    cutoff for local pot                                    
   LCOR   =        T    correct aug charges                                     
   LPAW   =        T    paw PP                                                  
   EAUG   =  412.352                                                            
   DEXC   =     .000                                                            
   RMAX   =    2.805    core radius for proj-oper                               
   RDEP   =    2.002    core radius for depl-charge                             
   QCUT   =   -4.457; QGAM   =    8.913    optimization parameters              
                                                                                
   Description                                                                  
     l     E      TYP  RCUT    TYP  RCUT                                        
     0   .000     23  1.500                                                     
     0   .000     23  1.500                                                     
     1   .000     23  1.900                                                     
     1   .000     23  1.900                                                     
     2   .000      7   .000                                                     
  local pseudopotential read in
  atomic valenz-charges read in
  non local Contribution for L=           0  read in
    real space projection operators read in
  non local Contribution for L=           0  read in
    real space projection operators read in
  non local Contribution for L=           1  read in
    real space projection operators read in
  non local Contribution for L=           1  read in
    real space projection operators read in
    PAW grid and wavefunctions read in
 
   number of l-projection  operators is LMAX  =           4
   number of lm-projection operators is LMMAX =           8
 
 Optimization of the real space projectors (new method)

 maximal supplied QI-value         = 15.12
 optimisation between [QCUT,QGAM] = [  8.77, 17.69] = [ 21.53, 87.61] Ry 
 Optimized for a Real-space Cutoff    1.69 Angstroem

   l    n(q)    QCUT    max X(q) W(low)/X(q) W(high)/X(q)  e(spline) 
   0      9     8.768     6.754    0.18E-04    0.21E-05    0.67E-08
   0      9     8.768    11.260    0.63E-04    0.78E-05    0.39E-07
   1      8     8.768     3.800    0.94E-05    0.21E-04    0.25E-07
   1      8     8.768    42.936    0.24E-03    0.36E-03    0.23E-06
   2      8     8.768     4.943    0.61E-04    0.13E-04    0.38E-07
   2      8     8.768    88.807    0.23E-03    0.32E-03    0.20E-06
 Optimization of the real space projectors (new method)

 maximal supplied QI-value         = 17.01
 optimisation between [QCUT,QGAM] = [  8.84, 17.69] = [ 21.90, 87.61] Ry 
 Optimized for a Real-space Cutoff    1.55 Angstroem

   l    n(q)    QCUT    max X(q) W(low)/X(q) W(high)/X(q)  e(spline) 
   1      8     8.844     4.548    0.31E-04    0.33E-04    0.33E-07
   1      8     8.844     5.232    0.39E-03    0.50E-04    0.28E-06
   2      7     8.844     3.957    0.38E-04    0.11E-03    0.44E-07
   2      7     8.844    29.816    0.43E-03    0.99E-03    0.21E-06
   0      8     8.844    23.438    0.18E-04    0.19E-04    0.85E-08
   0      8     8.844    39.418    0.66E-04    0.15E-03    0.47E-07
 Optimization of the real space projectors (new method)

 maximal supplied QI-value         = 19.84
 optimisation between [QCUT,QGAM] = [  8.73, 17.66] = [ 21.34, 87.33] Ry 
 Optimized for a Real-space Cutoff    1.46 Angstroem

   l    n(q)    QCUT    max X(q) W(low)/X(q) W(high)/X(q)  e(spline) 
   0      8     8.731     3.485    0.23E-04    0.53E-05    0.51E-07
   0      8     8.731    30.133    0.28E-03    0.36E-03    0.17E-06
   1      7     8.731     3.755    0.11E-03    0.11E-03    0.69E-07
   1      7     8.731    24.805    0.50E-03    0.59E-03    0.12E-06
  PAW Sr                                :
 energy of atom  1       EATOM= -843.6740
 kinetic energy error for atom=    0.0094 (will be added to EATOM!!)
  PAW Fe                                :
 energy of atom  2       EATOM=-2459.3729
 kinetic energy error for atom=    0.0682 (will be added to EATOM!!)
  PAW O_s                               :
 energy of atom  3       EATOM= -433.0277
 kinetic energy error for atom=    0.0347 (will be added to EATOM!!)
 
 
 POSCAR: Sr4 Fe4 O12                             
  positions in direct lattice
  velocities in cartesian coordinates
 exchange correlation table for  LEXCH =        7
   RHO(1)=    0.500       N(1)  =     2000
   RHO(2)=  100.500       N(2)  =     4000

 VTST: version 3.1, (03/28/14)

 CHAIN: initializing optimizer
 
 OPT: Using VASP QUASI-newton optimizer
 CHAIN: Read ICHAIN            0
 
 POSCAR: Sr4 Fe4 O12                             
  positions in direct lattice
  velocities in cartesian coordinates
 


--------------------------------------------------------------------------------------------------------


 ion  position               nearest neighbor table
   1  0.000  0.500  0.250-  13 2.73  19 2.73  18 2.74  11 2.74  14 2.74  12 2.75  12 2.75  18 2.76
                            10 2.76  16 2.76  20 2.78   9 2.78   8 3.37   6 3.37   5 3.37   7 3.37
   2  0.500  1.000  0.750-   9 2.73  20 2.73  17 2.74  16 2.74  10 2.74  15 2.75  15 2.75  17 2.76
                            11 2.76  14 2.76  19 2.78  13 2.78   5 3.37   7 3.37   6 3.37   8 3.37
   3  0.500  0.000  0.250-  10 2.73  16 2.73  12 2.74   9 2.74  20 2.74  18 2.75  18 2.75  12 2.76
                            13 2.76  19 2.76  11 2.78  14 2.78   5 3.37   7 3.37   6 3.37   8 3.37
   4  1.000  0.500  0.750-  11 2.73  14 2.73  15 2.74  19 2.74  13 2.74  17 2.75  17 2.75  15 2.76
                            20 2.76   9 2.76  16 2.78  10 2.78   8 3.37   6 3.37   5 3.37   7 3.37
   5  0.500  0.500  0.500-   9 1.94  16 1.94  11 1.94  19 1.94  18 1.95  15 1.95   2 3.37   3 3.37
                             1 3.37   4 3.37   1 3.37   4 3.37   2 3.37   3 3.37
   6  0.000  0.000  0.500-  11 1.94  19 1.94  16 1.94   9 1.94  17 1.95  12 1.95   1 3.37   4 3.37
                             3 3.37   2 3.37   2 3.37   3 3.37   4 3.37   1 3.37
   7  0.500  0.500  0.000-  20 1.94  10 1.94  14 1.94  13 1.94  18 1.95  15 1.95   2 3.37   3 3.37
                             1 3.37   4 3.37   1 3.37   4 3.37   2 3.37   3 3.37
   8  0.000  0.000  0.000-  14 1.94  13 1.94  20 1.94  10 1.94  17 1.95  12 1.95   1 3.37   4 3.37
                             3 3.37   2 3.37   2 3.37   3 3.37   4 3.37   1 3.37
   9  0.747  0.247  0.501-   5 1.94   6 1.94   2 2.73   3 2.74   4 2.76   1 2.78
  10  0.253  0.753  0.001-   7 1.94   8 1.94   3 2.73   2 2.74   1 2.76   4 2.78
  11  0.753  0.747  0.501-   6 1.94   5 1.94   4 2.73   1 2.74   2 2.76   3 2.78
  12  0.998  1.000  0.250-   6 1.95   8 1.95   3 2.74   1 2.75   1 2.75   3 2.76
  13  0.247  0.253  0.001-   8 1.94   7 1.94   1 2.73   4 2.74   3 2.76   2 2.78
  14  0.753  0.747  0.999-   8 1.94   7 1.94   4 2.73   1 2.74   2 2.76   3 2.78
  15  0.498  0.500  0.750-   5 1.95   7 1.95   4 2.74   2 2.75   2 2.75   4 2.76
  16  0.253  0.753  0.499-   5 1.94   6 1.94   3 2.73   2 2.74   1 2.76   4 2.78
  17  0.002  0.000  0.750-   6 1.95   8 1.95   2 2.74   4 2.75   4 2.75   2 2.76
  18  0.502  0.500  0.250-   5 1.95   7 1.95   1 2.74   3 2.75   3 2.75   1 2.76
  19  0.247  0.253  0.499-   6 1.94   5 1.94   1 2.73   4 2.74   3 2.76   2 2.78
  20  0.747  0.247  0.999-   7 1.94   8 1.94   2 2.73   3 2.74   4 2.76   1 2.78
 
  LATTYP: Found a simple orthorhombic cell.
 ALAT       =     5.4992004251
 B/A-ratio  =     1.0000714880
 C/A-ratio  =     1.4177647723
  
  Lattice vectors:
  
 A1 = (   0.0000000000,  -5.4992004251,   0.0000000000)
 A2 = (  -5.4995935518,   0.0000000000,   0.0000000000)
 A3 = (   0.0000000000,   0.0000000000,  -7.7965726387)


Analysis of symmetry for initial positions (statically):
=====================================================================
 Subroutine PRICEL returns:
 Original cell was already a primitive cell.
 

 Routine SETGRP: Setting up the symmetry group for a 
 simple orthorhombic supercell.


 Subroutine GETGRP returns: Found  8 space group operations
 (whereof  2 operations were pure point group operations)
 out of a pool of  8 trial point group operations.


The static configuration has the point symmetry S_2 .
 The point group associated with its full space group is D_2h.


Analysis of symmetry for dynamics (positions and initial velocities):
=====================================================================
 Subroutine PRICEL returns:
 Original cell was already a primitive cell.
 

 Routine SETGRP: Setting up the symmetry group for a 
 simple orthorhombic supercell.


 Subroutine GETGRP returns: Found  8 space group operations
 (whereof  2 operations were pure point group operations)
 out of a pool of  8 trial point group operations.


The dynamic configuration has the point symmetry S_2 .
 The point group associated with its full space group is D_2h.


Analysis of structural, dynamic, and magnetic symmetry:
=====================================================================
 Subroutine PRICEL returns:
 Original cell was already a primitive cell.
 

 Routine SETGRP: Setting up the symmetry group for a 
 simple orthorhombic supercell.


 Subroutine GETGRP returns: Found  8 space group operations
 (whereof  2 operations were pure point group operations)
 out of a pool of  8 trial point group operations.


The magnetic configuration has the point symmetry S_2 .
 The point group associated with its full space group is D_2h.


 Subroutine INISYM returns: Found  8 space group operations
 (whereof  2 operations are pure point group operations),
 and found     1 'primitive' translations

 
 
 KPOINTS: Automatic Mesh                          

Automatic generation of k-mesh.
Space group operators:
 irot       det(A)        alpha          n_x          n_y          n_z        tau_x        tau_y        tau_z
    1     1.000000     0.000000     1.000000     0.000000     0.000000     0.000000     0.000000     0.000000
    2    -1.000000     0.000000     1.000000     0.000000     0.000000     0.000000     0.000000     0.000000
    3     1.000000   180.000000     0.000000     0.000000     1.000000     0.000000     0.000000    -0.500000
    4    -1.000000   180.000000     0.000000     0.000000     1.000000     0.000000     0.000000    -0.500000
    5     1.000000   180.000000     1.000000     0.000000     0.000000    -0.500000    -0.500000     0.000000
    6    -1.000000   180.000000     1.000000     0.000000     0.000000    -0.500000    -0.500000     0.000000
    7     1.000000   180.000000     0.000000     1.000000     0.000000    -0.500000    -0.500000    -0.500000
    8    -1.000000   180.000000     0.000000     1.000000     0.000000    -0.500000    -0.500000    -0.500000
 
 Subroutine IBZKPT returns following result:
 ===========================================
 
 Found      8 irreducible k-points:
 
 Following reciprocal coordinates:
            Coordinates               Weight
  0.125000  0.125000  0.125000      8.000000
  0.375000  0.125000  0.125000      8.000000
  0.125000  0.375000  0.125000      8.000000
  0.375000  0.375000  0.125000      8.000000
  0.125000  0.125000  0.375000      8.000000
  0.375000  0.125000  0.375000      8.000000
  0.125000  0.375000  0.375000      8.000000
  0.375000  0.375000  0.375000      8.000000
 
 Following cartesian coordinates:
            Coordinates               Weight
  0.022729  0.022731  0.016033      8.000000
  0.068187  0.022731  0.016033      8.000000
  0.022729  0.068192  0.016033      8.000000
  0.068187  0.068192  0.016033      8.000000
  0.022729  0.022731  0.048098      8.000000
  0.068187  0.022731  0.048098      8.000000
  0.022729  0.068192  0.048098      8.000000
  0.068187  0.068192  0.048098      8.000000
 
 TETIRR: Found    140 inequivalent tetrahedra from      384


--------------------------------------------------------------------------------------------------------




 Dimension of arrays:
   k-points           NKPTS =      8   k-points in BZ     NKDIM =      8   number of bands    NBANDS=    110
   number of dos      NEDOS =    301   number of ions     NIONS =     20
   non local maximal  LDIM  =      6   non local SUM 2l+1 LMDIM =     18
   total plane-waves  NPLWV =  20736
   max r-space proj   IRMAX =   1831   max aug-charges    IRDMAX=   5355
   dimension x,y,z NGX =    24 NGY =   24 NGZ =   36
   dimension x,y,z NGXF=    48 NGYF=   48 NGZF=   72
   support grid    NGXF=    48 NGYF=   48 NGZF=   72
   ions per type =               4   4  12
 NGX,Y,Z   is equivalent  to a cutoff of   7.25,  7.26,  7.68 a.u.
 NGXF,Y,Z  is equivalent  to a cutoff of  14.51, 14.51, 15.35 a.u.


 I would recommend the setting:
   dimension x,y,z NGX =    23 NGY =   23 NGZ =   33
 SYSTEM =  unknown system                          
 POSCAR =  Sr4 Fe4 O12                             

 Startparameter for this run:
   NWRITE =      2    write-flag & timer
   PREC   = normal    normal or accurate (medium, high low for compatibility)
   ISTART =      0    job   : 0-new  1-cont  2-samecut
   ICHARG =      1    charge: 1-file 2-atom 10-const
   ISPIN  =      2    spin polarized calculation?
   LNONCOLLINEAR =      F non collinear calculations
   LSORBIT =      F    spin-orbit coupling
   INIWAV =      1    electr: 0-lowe 1-rand  2-diag
   LASPH  =      F    aspherical Exc in radial PAW
   METAGGA=      F    non-selfconsistent MetaGGA calc.

 Electronic Relaxation 1
   ENCUT  =  300.0 eV  22.05 Ry    4.70 a.u.   7.77  7.77 11.01*2*pi/ulx,y,z
   ENINI  =  300.0     initial cutoff
   ENAUG  =  578.3 eV  augmentation charge cutoff
   NELM   =    100;   NELMIN=  2; NELMDL= -5     # of ELM steps 
   EDIFF  = 0.1E-02   stopping-criterion for ELM
   LREAL  =      T    real-space projection
   NLSPLINE    = F    spline interpolate recip. space projectors
   LCOMPAT=      F    compatible to vasp.4.4
   GGA_COMPAT  = T    GGA compatible to vasp.4.4-vasp.4.6
   LMAXPAW     = -100 max onsite density
   LMAXMIX     =    4 max onsite mixed and CHGCAR
   VOSKOWN=      0    Vosko Wilk Nusair interpolation
   ROPT   =   -0.00050  -0.00050  -0.00050
 Ionic relaxation
   EDIFFG = -.1E-01   stopping-criterion for IOM
   NSW    =     99    number of steps for IOM
   NBLOCK =      1;   KBLOCK =     99    inner block; outer block 
   IBRION =      1    ionic relax: 0-MD 1-quasi-New 2-CG
   NFREE  =      0    steps in history (QN), initial steepest desc. (CG)
   ISIF   =      3    stress and relaxation
   IWAVPR =     11    prediction:  0-non 1-charg 2-wave 3-comb
   ISYM   =      2    0-nonsym 1-usesym 2-fastsym
   LCORR  =      T    Harris-Foulkes like correction to forces

   POTIM  = 0.5000    time-step for ionic-motion
   TEIN   =    0.0    initial temperature
   TEBEG  =    0.0;   TEEND  =   0.0 temperature during run
   SMASS  =  -3.00    Nose mass-parameter (am)
   estimated Nose-frequenzy (Omega)   =  0.10E-29 period in steps =****** mass=  -0.691E-27a.u.
   SCALEE = 1.0000    scale energy and forces
   NPACO  =    256;   APACO  = 16.0  distance and # of slots for P.C.
   PSTRESS=    0.0 pullay stress

  Mass of Ions in am
   POMASS =  87.62 55.85 16.00
  Ionic Valenz
   ZVAL   =  10.00 14.00  6.00
  Atomic Wigner-Seitz radii
   RWIGS  =  -1.00 -1.00 -1.00
  virtual crystal weights 
   VCA    =   1.00  1.00  1.00
   NELECT =     168.0000    total number of electrons
   NUPDOWN=      -1.0000    fix difference up-down

 DOS related values:
   EMIN   =  10.00;   EMAX   =-10.00  energy-range for DOS
   EFERMI =   0.00
   ISMEAR =    -5;   SIGMA  =   0.05  broadening in eV -4-tet -1-fermi 0-gaus

 Electronic relaxation 2 (details)
   IALGO  =     68    algorithm
   LDIAG  =      T    sub-space diagonalisation (order eigenvalues)
   LSUBROT=      F    optimize rotation matrix (better conditioning)
   TURBO    =      0    0=normal 1=particle mesh
   IRESTART =      0    0=no restart 2=restart with 2 vectors
   NREBOOT  =      0    no. of reboots
   NMIN     =      0    reboot dimension
   EREF     =   0.00    reference energy to select bands
   IMIX   =      4    mixing-type and parameters
     AMIX     =   0.40;   BMIX     =  1.00
     AMIX_MAG =   1.60;   BMIX_MAG =  1.00
     AMIN     =   0.10
     WC   =   100.;   INIMIX=   1;  MIXPRE=   1;  MAXMIX= -45

 Intra band minimization:
   WEIMIN = 0.0010     energy-eigenvalue tresh-hold
   EBREAK =  0.23E-05  absolut break condition
   DEPER  =   0.30     relativ break condition  

   TIME   =   0.40     timestep for ELM

  volume/ion in A,a.u.               =      11.79        79.56
  Fermi-wavevector in a.u.,A,eV,Ry     =   1.462177  2.763114 29.088736  2.137962
  Thomas-Fermi vector in A             =   2.578421
 
 Write flags
   LWAVE  =      F    write WAVECAR
   LCHARG =      T    write CHGCAR
   LVTOT  =      F    write LOCPOT, total local potential
   LVHAR  =      F    write LOCPOT, Hartree potential only
   LELF   =      F    write electronic localiz. function (ELF)
   LORBIT =      0    0 simple, 1 ext, 2 COOP (PROOUT)


 Dipole corrections
   LMONO  =      F    monopole corrections only (constant potential shift)
   LDIPOL =      F    correct potential (dipole corrections)
   IDIPOL =      0    1-x, 2-y, 3-z, 4-all directions 
   EPSILON=  1.0000000 bulk dielectric constant

 LDA+U is selected, type is set to LDAUTYPE =  2
   angular momentum for each species LDAUL =     0    2    0
   U (eV)           for each species LDAUU =   0.0  5.3  0.0
   J (eV)           for each species LDAUJ =   0.0  0.0  0.0
 Exchange correlation treatment:
   GGA     =    --    GGA type
   LEXCH   =     7    internal setting for exchange type
   VOSKOWN=      0    Vosko Wilk Nusair interpolation
   LHFCALC =     F    Hartree Fock is set to
   LHFONE  =     F    Hartree Fock one center treatment
   AEXX    =    0.0000 exact exchange contribution

 Linear response parameters
   LEPSILON=     F    determine dielectric tensor
   LRPA    =     F    only Hartree local field effects (RPA)
   LNABLA  =     F    use nabla operator in PAW spheres
   LVEL    =     F    velocity operator in full k-point grid
   LINTERFAST=   F  fast interpolation
   KINTER  =     0    interpolate to denser k-point grid
   CSHIFT  =0.1000    complex shift for real part using Kramers Kronig
   OMEGAMAX=  -1.0    maximum frequency
   DEG_THRESHOLD= 0.2000000E-02 threshold for treating states as degnerate
   RTIME   =    0.100 relaxation time in fs

 Orbital magnetization related:
   ORBITALMAG=     F  switch on orbital magnetization
   LCHIMAG   =     F  perturbation theory with respect to B field
   DQ        =  0.001000  dq finite difference perturbation B field



--------------------------------------------------------------------------------------------------------


 quasi-Newton-method for relaxation of ions
 charge density and potential will be updated during run
 spin polarized calculation
 RMM-DIIS sequential band-by-band and
  variant of blocked Davidson during initial phase
 perform sub-space diagonalisation
    before iterative eigenvector-optimisation
 modified Broyden-mixing scheme, WC =      100.0
 initial mixing is a Kerker type mixing with AMIX =  0.4000 and BMIX =      1.0000
 Hartree-type preconditioning will be used
 using additional bands           26
 real space projection scheme for non local part
 use partial core corrections
 calculate Harris-corrections to forces 
   (improved forces if not selfconsistent)
 use gradient corrections 
 use of overlap-Matrix (Vanderbilt PP)
 Fermi weights with tetrahedron method with Bloechl corrections


--------------------------------------------------------------------------------------------------------


  energy-cutoff  :      300.00
  volume of cell :      235.79
      direct lattice vectors                 reciprocal lattice vectors
     5.499593552  0.000000000  0.000000000     0.181831619  0.000000000  0.000000000
     0.000000000  5.499200425  0.000000000     0.000000000  0.181844618  0.000000000
     0.000000000  0.000000000  7.796572639     0.000000000  0.000000000  0.128261487

  length of vectors
     5.499593552  5.499200425  7.796572639     0.181831619  0.181844618  0.128261487


 
 k-points in units of 2pi/SCALE and weight: Automatic Mesh                          
   0.02272895  0.02273058  0.01603269       0.125
   0.06818686  0.02273058  0.01603269       0.125
   0.02272895  0.06819173  0.01603269       0.125
   0.06818686  0.06819173  0.01603269       0.125
   0.02272895  0.02273058  0.04809806       0.125
   0.06818686  0.02273058  0.04809806       0.125
   0.02272895  0.06819173  0.04809806       0.125
   0.06818686  0.06819173  0.04809806       0.125
 
 k-points in reciprocal lattice and weights: Automatic Mesh                          
   0.12500000  0.12500000  0.12500000       0.125
   0.37500000  0.12500000  0.12500000       0.125
   0.12500000  0.37500000  0.12500000       0.125
   0.37500000  0.37500000  0.12500000       0.125
   0.12500000  0.12500000  0.37500000       0.125
   0.37500000  0.12500000  0.37500000       0.125
   0.12500000  0.37500000  0.37500000       0.125
   0.37500000  0.37500000  0.37500000       0.125
 
 position of ions in fractional coordinates (direct lattice) 
   0.00003629  0.50010625  0.25000000
   0.50003629  0.99989375  0.75000000
   0.49996371  0.00010625  0.25000000
   0.99996371  0.49989375  0.75000000
   0.50000000  0.50000000  0.50000000
   0.00000000  0.00000000  0.50000000
   0.50000000  0.50000000  0.00000000
   0.00000000  0.00000000  0.00000000
   0.74677095  0.24677578  0.50108997
   0.25322905  0.75322422  0.00108997
   0.75322905  0.74677578  0.50108997
   0.99781447  0.99999676  0.25000000
   0.24677095  0.25322422  0.00108997
   0.75322905  0.74677578  0.99891003
   0.49781447  0.50000324  0.75000000
   0.25322905  0.75322422  0.49891003
   0.00218553  0.00000324  0.75000000
   0.50218553  0.49999676  0.25000000
   0.24677095  0.25322422  0.49891003
   0.74677095  0.24677578  0.99891003
 
 position of ions in cartesian coordinates  (Angst):
   0.00019957  2.75018448  1.94914316
   2.74999634  5.49861616  5.84742948
   2.74959721  0.00058427  1.94914316
   5.49939398  2.74901594  5.84742948
   2.74979678  2.74960021  3.89828632
   0.00000000  0.00000000  3.89828632
   2.74979678  2.74960021  0.00000000
   0.00000000  0.00000000  0.00000000
   4.10693667  1.35706948  3.90678432
   1.39265688  4.14213095  0.00849800
   4.14245365  4.10666969  3.90678432
   5.48757401  5.49918262  1.94914316
   1.35713990  1.39253073  0.00849800
   4.14245365  4.10666969  7.78807464
   2.73777724  2.74961802  5.84742948
   1.39265688  4.14213095  3.88978832
   0.01201954  0.00001781  5.84742948
   2.76181632  2.74958241  1.94914316
   1.35713990  1.39253073  3.88978832
   4.10693667  1.35706948  7.78807464
 


--------------------------------------------------------------------------------------------------------


 k-point  1 :   0.1250 0.1250 0.1250  plane waves:    2783
 k-point  2 :   0.3750 0.1250 0.1250  plane waves:    2779
 k-point  3 :   0.1250 0.3750 0.1250  plane waves:    2779
 k-point  4 :   0.3750 0.3750 0.1250  plane waves:    2775
 k-point  5 :   0.1250 0.1250 0.3750  plane waves:    2769
 k-point  6 :   0.3750 0.1250 0.3750  plane waves:    2793
 k-point  7 :   0.1250 0.3750 0.3750  plane waves:    2793
 k-point  8 :   0.3750 0.3750 0.3750  plane waves:    2782

 maximum and minimum number of plane-waves per node :       709      673

 maximum number of plane-waves:      2793
 maximum index in each direction: 
   IXMAX=    7   IYMAX=    7   IZMAX=   10
   IXMIN=   -8   IYMIN=   -8   IZMIN=  -11

 WARNING: aliasing errors must be expected set NGX to  32 to avoid them
 WARNING: aliasing errors must be expected set NGY to  32 to avoid them
 WARNING: aliasing errors must be expected set NGZ to  44 to avoid them
 aliasing errors are usually negligible using standard VASP settings
 and one can safely disregard these warnings

 real space projection operators:
  total allocation   :       2545.12 KBytes
  max/ min on nodes  :        645.75        630.69


 parallel 3D FFT for wavefunctions:
    minimum data exchange during FFTs selected (reduces bandwidth)
 parallel 3D FFT for charge:
    minimum data exchange during FFTs selected (reduces bandwidth)


 total amount of memory used by VASP on root node    45489. kBytes
========================================================================

   base      :      30000. kBytes
   nonlr-proj:       1393. kBytes
   fftplans  :        871. kBytes
   grid      :       2285. kBytes
   one-center:        155. kBytes
   wavefun   :      10785. kBytes
 
     INWAV:  cpu time    0.0000: real time    0.0000
 Broyden mixing: mesh for mixing (old mesh)
   NGX = 15   NGY = 15   NGZ = 23
  (NGX  = 48   NGY  = 48   NGZ  = 72)
  gives a total of   5175 points

 initial charge density was supplied:
 charge density of overlapping atoms calculated
 number of electron     168.0000000 magnetization      20.0000000
 keeping initial charge density in first step


--------------------------------------------------------------------------------------------------------


 Maximum index for non-local projection operator          431
 Maximum index for augmentation-charges          659 (set IRDMAX)


--------------------------------------------------------------------------------------------------------


 First call to EWALD:  gamma=   0.287
 Maximum number of real-space cells 3x 3x 2
 Maximum number of reciprocal cells 2x 2x 3

 FEWALD executed in parallel
    FEWALD:  cpu time    0.0030: real time    0.0029


----------------------------------------- Iteration    1(   1)  ---------------------------------------


    POTLOK:  cpu time    0.2310: real time    0.2326
    SETDIJ:  cpu time    0.0420: real time    0.0423
atom =   1  type =  1  l = 0
 
 onsite density matrix
 
spin component  1
 
  1.1831
 
spin component  2
 
  0.9680
 
 occupancies and eigenvectors
 
  o =  0.9680  v =  0.0000  1.0000      0.0000  0.0000
  o =  1.1831  v =  1.0000  0.0000      0.0000  0.0000
atom =   2  type =  1  l = 0
 
 onsite density matrix
 
spin component  1
 
  1.1831
 
spin component  2
 
  0.9680
 
 occupancies and eigenvectors
 
  o =  0.9680  v =  0.0000  1.0000      0.0000  0.0000
  o =  1.1831  v =  1.0000  0.0000      0.0000  0.0000
atom =   3  type =  1  l = 0
 
 onsite density matrix
 
spin component  1
 
  1.1831
 
spin component  2
 
  0.9680
 
 occupancies and eigenvectors
 
  o =  0.9680  v =  0.0000  1.0000      0.0000  0.0000
  o =  1.1831  v =  1.0000  0.0000      0.0000  0.0000
atom =   4  type =  1  l = 0
 
 onsite density matrix
 
spin component  1
 
  1.1831
 
spin component  2
 
  0.9680
 
 occupancies and eigenvectors
 
  o =  0.9680  v =  0.0000  1.0000      0.0000  0.0000
  o =  1.1831  v =  1.0000  0.0000      0.0000  0.0000
atom =   5  type =  2  l = 2
 
 onsite density matrix
 
spin component  1
 
  0.6713  0.0000  0.0000  0.0000  0.0000
  0.0000  0.6713  0.0000  0.0000  0.0000
  0.0000  0.0000  0.6713  0.0000  0.0000
  0.0000  0.0000  0.0000  0.6713  0.0000
  0.0000  0.0000  0.0000  0.0000  0.6713
 
spin component  2
 
  0.5818  0.0000  0.0000  0.0000  0.0000
  0.0000  0.5818  0.0000  0.0000  0.0000
  0.0000  0.0000  0.5818  0.0000  0.0000
  0.0000  0.0000  0.0000  0.5818  0.0000
  0.0000  0.0000  0.0000  0.0000  0.5818
 
 occupancies and eigenvectors
 
  o =  0.5818  v =  0.0000  0.0000  0.0000  0.0000  0.0000  1.0000  0.0000  0.0000  0.0000  0.0000      0.0000  0.0000  0.0000  0.0000  0.0000  0.0000  0.0000  0.0000  0.0000  0.0000
  o =  0.5818  v =  0.0000  0.0000  0.0000  0.0000  0.0000  0.0000  1.0000  0.0000  0.0000  0.0000      0.0000  0.0000  0.0000  0.0000  0.0000  0.0000  0.0000  0.0000  0.0000  0.0000
  o =  0.5818  v =  0.0000  0.0000  0.0000  0.0000  0.0000  0.0000  0.0000  1.0000  0.0000  0.0000      0.0000  0.0000  0.0000  0.0000  0.0000  0.0000  0.0000  0.0000  0.0000  0.0000
  o =  0.5818  v =  0.0000  0.0000  0.0000  0.0000  0.0000  0.0000  0.0000  0.0000  1.0000  0.0000      0.0000  0.0000  0.0000  0.0000  0.0000  0.0000  0.0000  0.0000  0.0000  0.0000
  o =  0.5818  v =  0.0000  0.0000  0.0000  0.0000  0.0000  0.0000  0.0000  0.0000  0.0000  1.0000      0.0000  0.0000  0.0000  0.0000  0.0000  0.0000  0.0000  0.0000  0.0000  0.0000
  o =  0.6713  v =  1.0000  0.0000  0.0000  0.0000  0.0000  0.0000  0.0000  0.0000  0.0000  0.0000      0.0000  0.0000  0.0000  0.0000  0.0000  0.0000  0.0000  0.0000  0.0000  0.0000
  o =  0.6713  v =  0.0000  1.0000  0.0000  0.0000  0.0000  0.0000  0.0000  0.0000  0.0000  0.0000      0.0000  0.0000  0.0000  0.0000  0.0000  0.0000  0.0000  0.0000  0.0000  0.0000
  o =  0.6713  v =  0.0000  0.0000  1.0000  0.0000  0.0000  0.0000  0.0000  0.0000  0.0000  0.0000      0.0000  0.0000  0.0000  0.0000  0.0000  0.0000  0.0000  0.0000  0.0000  0.0000
  o =  0.6713  v =  0.0000  0.0000  0.0000  1.0000  0.0000  0.0000  0.0000  0.0000  0.0000  0.0000      0.0000  0.0000  0.0000  0.0000  0.0000  0.0000  0.0000  0.0000  0.0000  0.0000
  o =  0.6713  v =  0.0000  0.0000  0.0000  0.0000  1.0000  0.0000  0.0000  0.0000  0.0000  0.0000      0.0000  0.0000  0.0000  0.0000  0.0000  0.0000  0.0000  0.0000  0.0000  0.0000
atom =   6  type =  2  l = 2
 
 onsite density matrix
 
spin component  1
 
  0.6713  0.0000  0.0000  0.0000  0.0000
  0.0000  0.6713  0.0000  0.0000  0.0000
  0.0000  0.0000  0.6713  0.0000  0.0000
  0.0000  0.0000  0.0000  0.6713  0.0000
  0.0000  0.0000  0.0000  0.0000  0.6713
 
spin component  2
 
  0.5818  0.0000  0.0000  0.0000  0.0000
  0.0000  0.5818  0.0000  0.0000  0.0000
  0.0000  0.0000  0.5818  0.0000  0.0000
  0.0000  0.0000  0.0000  0.5818  0.0000
  0.0000  0.0000  0.0000  0.0000  0.5818
 
 occupancies and eigenvectors
 
  o =  0.5818  v =  0.0000  0.0000  0.0000  0.0000  0.0000  1.0000  0.0000  0.0000  0.0000  0.0000      0.0000  0.0000  0.0000  0.0000  0.0000  0.0000  0.0000  0.0000  0.0000  0.0000
  o =  0.5818  v =  0.0000  0.0000  0.0000  0.0000  0.0000  0.0000  1.0000  0.0000  0.0000  0.0000      0.0000  0.0000  0.0000  0.0000  0.0000  0.0000  0.0000  0.0000  0.0000  0.0000
  o =  0.5818  v =  0.0000  0.0000  0.0000  0.0000  0.0000  0.0000  0.0000  1.0000  0.0000  0.0000      0.0000  0.0000  0.0000  0.0000  0.0000  0.0000  0.0000  0.0000  0.0000  0.0000
  o =  0.5818  v =  0.0000  0.0000  0.0000  0.0000  0.0000  0.0000  0.0000  0.0000  1.0000  0.0000      0.0000  0.0000  0.0000  0.0000  0.0000  0.0000  0.0000  0.0000  0.0000  0.0000
  o =  0.5818  v =  0.0000  0.0000  0.0000  0.0000  0.0000  0.0000  0.0000  0.0000  0.0000  1.0000      0.0000  0.0000  0.0000  0.0000  0.0000  0.0000  0.0000  0.0000  0.0000  0.0000
  o =  0.6713  v =  1.0000  0.0000  0.0000  0.0000  0.0000  0.0000  0.0000  0.0000  0.0000  0.0000      0.0000  0.0000  0.0000  0.0000  0.0000  0.0000  0.0000  0.0000  0.0000  0.0000
  o =  0.6713  v =  0.0000  1.0000  0.0000  0.0000  0.0000  0.0000  0.0000  0.0000  0.0000  0.0000      0.0000  0.0000  0.0000  0.0000  0.0000  0.0000  0.0000  0.0000  0.0000  0.0000
  o =  0.6713  v =  0.0000  0.0000  1.0000  0.0000  0.0000  0.0000  0.0000  0.0000  0.0000  0.0000      0.0000  0.0000  0.0000  0.0000  0.0000  0.0000  0.0000  0.0000  0.0000  0.0000
  o =  0.6713  v =  0.0000  0.0000  0.0000  1.0000  0.0000  0.0000  0.0000  0.0000  0.0000  0.0000      0.0000  0.0000  0.0000  0.0000  0.0000  0.0000  0.0000  0.0000  0.0000  0.0000
  o =  0.6713  v =  0.0000  0.0000  0.0000  0.0000  1.0000  0.0000  0.0000  0.0000  0.0000  0.0000      0.0000  0.0000  0.0000  0.0000  0.0000  0.0000  0.0000  0.0000  0.0000  0.0000
atom =   7  type =  2  l = 2
 
 onsite density matrix
 
spin component  1
 
  0.6713  0.0000  0.0000  0.0000  0.0000
  0.0000  0.6713  0.0000  0.0000  0.0000
  0.0000  0.0000  0.6713  0.0000  0.0000
  0.0000  0.0000  0.0000  0.6713  0.0000
  0.0000  0.0000  0.0000  0.0000  0.6713
 
spin component  2
 
  0.5818  0.0000  0.0000  0.0000  0.0000
  0.0000  0.5818  0.0000  0.0000  0.0000
  0.0000  0.0000  0.5818  0.0000  0.0000
  0.0000  0.0000  0.0000  0.5818  0.0000
  0.0000  0.0000  0.0000  0.0000  0.5818
 
 occupancies and eigenvectors
 
  o =  0.5818  v =  0.0000  0.0000  0.0000  0.0000  0.0000  1.0000  0.0000  0.0000  0.0000  0.0000      0.0000  0.0000  0.0000  0.0000  0.0000  0.0000  0.0000  0.0000  0.0000  0.0000
  o =  0.5818  v =  0.0000  0.0000  0.0000  0.0000  0.0000  0.0000  1.0000  0.0000  0.0000  0.0000      0.0000  0.0000  0.0000  0.0000  0.0000  0.0000  0.0000  0.0000  0.0000  0.0000
  o =  0.5818  v =  0.0000  0.0000  0.0000  0.0000  0.0000  0.0000  0.0000  1.0000  0.0000  0.0000      0.0000  0.0000  0.0000  0.0000  0.0000  0.0000  0.0000  0.0000  0.0000  0.0000
  o =  0.5818  v =  0.0000  0.0000  0.0000  0.0000  0.0000  0.0000  0.0000  0.0000  1.0000  0.0000      0.0000  0.0000  0.0000  0.0000  0.0000  0.0000  0.0000  0.0000  0.0000  0.0000
  o =  0.5818  v =  0.0000  0.0000  0.0000  0.0000  0.0000  0.0000  0.0000  0.0000  0.0000  1.0000      0.0000  0.0000  0.0000  0.0000  0.0000  0.0000  0.0000  0.0000  0.0000  0.0000
  o =  0.6713  v =  1.0000  0.0000  0.0000  0.0000  0.0000  0.0000  0.0000  0.0000  0.0000  0.0000      0.0000  0.0000  0.0000  0.0000  0.0000  0.0000  0.0000  0.0000  0.0000  0.0000
  o =  0.6713  v =  0.0000  1.0000  0.0000  0.0000  0.0000  0.0000  0.0000  0.0000  0.0000  0.0000      0.0000  0.0000  0.0000  0.0000  0.0000  0.0000  0.0000  0.0000  0.0000  0.0000
  o =  0.6713  v =  0.0000  0.0000  1.0000  0.0000  0.0000  0.0000  0.0000  0.0000  0.0000  0.0000      0.0000  0.0000  0.0000  0.0000  0.0000  0.0000  0.0000  0.0000  0.0000  0.0000
  o =  0.6713  v =  0.0000  0.0000  0.0000  1.0000  0.0000  0.0000  0.0000  0.0000  0.0000  0.0000      0.0000  0.0000  0.0000  0.0000  0.0000  0.0000  0.0000  0.0000  0.0000  0.0000
  o =  0.6713  v =  0.0000  0.0000  0.0000  0.0000  1.0000  0.0000  0.0000  0.0000  0.0000  0.0000      0.0000  0.0000  0.0000  0.0000  0.0000  0.0000  0.0000  0.0000  0.0000  0.0000
atom =   8  type =  2  l = 2
 
 onsite density matrix
 
spin component  1
 
  0.6713  0.0000  0.0000  0.0000  0.0000
  0.0000  0.6713  0.0000  0.0000  0.0000
  0.0000  0.0000  0.6713  0.0000  0.0000
  0.0000  0.0000  0.0000  0.6713  0.0000
  0.0000  0.0000  0.0000  0.0000  0.6713
 
spin component  2
 
  0.5818  0.0000  0.0000  0.0000  0.0000
  0.0000  0.5818  0.0000  0.0000  0.0000
  0.0000  0.0000  0.5818  0.0000  0.0000
  0.0000  0.0000  0.0000  0.5818  0.0000
  0.0000  0.0000  0.0000  0.0000  0.5818
 
 occupancies and eigenvectors
 
  o =  0.5818  v =  0.0000  0.0000  0.0000  0.0000  0.0000  1.0000  0.0000  0.0000  0.0000  0.0000      0.0000  0.0000  0.0000  0.0000  0.0000  0.0000  0.0000  0.0000  0.0000  0.0000
  o =  0.5818  v =  0.0000  0.0000  0.0000  0.0000  0.0000  0.0000  1.0000  0.0000  0.0000  0.0000      0.0000  0.0000  0.0000  0.0000  0.0000  0.0000  0.0000  0.0000  0.0000  0.0000
  o =  0.5818  v =  0.0000  0.0000  0.0000  0.0000  0.0000  0.0000  0.0000  1.0000  0.0000  0.0000      0.0000  0.0000  0.0000  0.0000  0.0000  0.0000  0.0000  0.0000  0.0000  0.0000
  o =  0.5818  v =  0.0000  0.0000  0.0000  0.0000  0.0000  0.0000  0.0000  0.0000  1.0000  0.0000      0.0000  0.0000  0.0000  0.0000  0.0000  0.0000  0.0000  0.0000  0.0000  0.0000
  o =  0.5818  v =  0.0000  0.0000  0.0000  0.0000  0.0000  0.0000  0.0000  0.0000  0.0000  1.0000      0.0000  0.0000  0.0000  0.0000  0.0000  0.0000  0.0000  0.0000  0.0000  0.0000
  o =  0.6713  v =  1.0000  0.0000  0.0000  0.0000  0.0000  0.0000  0.0000  0.0000  0.0000  0.0000      0.0000  0.0000  0.0000  0.0000  0.0000  0.0000  0.0000  0.0000  0.0000  0.0000
  o =  0.6713  v =  0.0000  1.0000  0.0000  0.0000  0.0000  0.0000  0.0000  0.0000  0.0000  0.0000      0.0000  0.0000  0.0000  0.0000  0.0000  0.0000  0.0000  0.0000  0.0000  0.0000
  o =  0.6713  v =  0.0000  0.0000  1.0000  0.0000  0.0000  0.0000  0.0000  0.0000  0.0000  0.0000      0.0000  0.0000  0.0000  0.0000  0.0000  0.0000  0.0000  0.0000  0.0000  0.0000
  o =  0.6713  v =  0.0000  0.0000  0.0000  1.0000  0.0000  0.0000  0.0000  0.0000  0.0000  0.0000      0.0000  0.0000  0.0000  0.0000  0.0000  0.0000  0.0000  0.0000  0.0000  0.0000
  o =  0.6713  v =  0.0000  0.0000  0.0000  0.0000  1.0000  0.0000  0.0000  0.0000  0.0000  0.0000      0.0000  0.0000  0.0000  0.0000  0.0000  0.0000  0.0000  0.0000  0.0000  0.0000
atom =   9  type =  3  l = 0
 
 onsite density matrix
 
spin component  1
 
  1.0874
 
spin component  2
 
  0.7767
 
 occupancies and eigenvectors
 
  o =  0.7767  v =  0.0000  1.0000      0.0000  0.0000
  o =  1.0874  v =  1.0000  0.0000      0.0000  0.0000
atom =  10  type =  3  l = 0
 
 onsite density matrix
 
spin component  1
 
  1.0874
 
spin component  2
 
  0.7767
 
 occupancies and eigenvectors
 
  o =  0.7767  v =  0.0000  1.0000      0.0000  0.0000
  o =  1.0874  v =  1.0000  0.0000      0.0000  0.0000
atom =  11  type =  3  l = 0
 
 onsite density matrix
 
spin component  1
 
  1.0874
 
spin component  2
 
  0.7767
 
 occupancies and eigenvectors
 
  o =  0.7767  v =  0.0000  1.0000      0.0000  0.0000
  o =  1.0874  v =  1.0000  0.0000      0.0000  0.0000
atom =  12  type =  3  l = 0
 
 onsite density matrix
 
spin component  1
 
  1.0874
 
spin component  2
 
  0.7767
 
 occupancies and eigenvectors
 
  o =  0.7767  v =  0.0000  1.0000      0.0000  0.0000
  o =  1.0874  v =  1.0000  0.0000      0.0000  0.0000
atom =  13  type =  3  l = 0
 
 onsite density matrix
 
spin component  1
 
  1.0874
 
spin component  2
 
  0.7767
 
 occupancies and eigenvectors
 
  o =  0.7767  v =  0.0000  1.0000      0.0000  0.0000
  o =  1.0874  v =  1.0000  0.0000      0.0000  0.0000
atom =  14  type =  3  l = 0
 
 onsite density matrix
 
spin component  1
 
  1.0874
 
spin component  2
 
  0.7767
 
 occupancies and eigenvectors
 
  o =  0.7767  v =  0.0000  1.0000      0.0000  0.0000
  o =  1.0874  v =  1.0000  0.0000      0.0000  0.0000
atom =  15  type =  3  l = 0
 
 onsite density matrix
 
spin component  1
 
  1.0874
 
spin component  2
 
  0.7767
 
 occupancies and eigenvectors
 
  o =  0.7767  v =  0.0000  1.0000      0.0000  0.0000
  o =  1.0874  v =  1.0000  0.0000      0.0000  0.0000
atom =  16  type =  3  l = 0
 
 onsite density matrix
 
spin component  1
 
  1.0874
 
spin component  2
 
  0.7767
 
 occupancies and eigenvectors
 
  o =  0.7767  v =  0.0000  1.0000      0.0000  0.0000
  o =  1.0874  v =  1.0000  0.0000      0.0000  0.0000
atom =  17  type =  3  l = 0
 
 onsite density matrix
 
spin component  1
 
  1.0874
 
spin component  2
 
  0.7767
 
 occupancies and eigenvectors
 
  o =  0.7767  v =  0.0000  1.0000      0.0000  0.0000
  o =  1.0874  v =  1.0000  0.0000      0.0000  0.0000
atom =  18  type =  3  l = 0
 
 onsite density matrix
 
spin component  1
 
  1.0874
 
spin component  2
 
  0.7767
 
 occupancies and eigenvectors
 
  o =  0.7767  v =  0.0000  1.0000      0.0000  0.0000
  o =  1.0874  v =  1.0000  0.0000      0.0000  0.0000
atom =  19  type =  3  l = 0
 
 onsite density matrix
 
spin component  1
 
  1.0874
 
spin component  2
 
  0.7767
 
 occupancies and eigenvectors
 
  o =  0.7767  v =  0.0000  1.0000      0.0000  0.0000
  o =  1.0874  v =  1.0000  0.0000      0.0000  0.0000
atom =  20  type =  3  l = 0
 
 onsite density matrix
 
spin component  1
 
  1.0874
 
spin component  2
 
  0.7767
 
 occupancies and eigenvectors
 
  o =  0.7767  v =  0.0000  1.0000      0.0000  0.0000
  o =  1.0874  v =  1.0000  0.0000      0.0000  0.0000
     EDDAV:  cpu time    6.6480: real time    6.6612
 BZINTS: Fermi energy: 18.441851;168.000000 electrons
         Band energy:-236.321674;  BLOECHL correction: -0.065963
       DOS:  cpu time    0.0600: real time    0.0599
    --------------------------------------------
      LOOP:  cpu time    6.9869: real time    7.0031

 eigenvalue-minimisations  :  3752
 total energy-change (2. order) : 0.1658018E+04  (-0.6355983E+04)
 number of electron     168.0000000 magnetization      20.0000000
 augmentation part      168.0000000 magnetization      20.0000000

 Free energy of the ion-electron system (eV)
  ---------------------------------------------------
  alpha Z        PSCENC =      1166.31124243
  Ewald energy   TEWEN  =    -12985.07106125
  -Hartree energ DENC   =     -5152.26573188
  -exchange      EXHF   =         0.00000000
  -V(xc)+E(xc)   XCENC  =       761.56336761
  PAW double counting   =     12967.27660945   -13271.26785113
  entropy T*S    EENTRO =         0.00000000
  eigenvalues    EBANDS =      -236.32167406
  atomic energy  EATOM  =     18407.79351682
  Solvation  Ediel_sol  =         0.00000000
  ---------------------------------------------------
  free energy    TOTEN  =      1658.01841798 eV

  energy without entropy =     1658.01841798  energy(sigma->0) =     1658.01841798


--------------------------------------------------------------------------------------------------------




----------------------------------------- Iteration    1(   2)  ---------------------------------------


     EDDAV:  cpu time    6.3190: real time    6.3322
 BZINTS: Fermi energy:  7.493648;168.000000 electrons
         Band energy:***********;  BLOECHL correction: -0.005993
       DOS:  cpu time    0.0650: real time    0.0655
    --------------------------------------------
      LOOP:  cpu time    6.3860: real time    6.3999

 eigenvalue-minimisations  :  3520
 total energy-change (2. order) :-0.1645675E+04  (-0.1542969E+04)
 number of electron     168.0000000 magnetization      20.0000000
 augmentation part      168.0000000 magnetization      20.0000000

 Free energy of the ion-electron system (eV)
  ---------------------------------------------------
  alpha Z        PSCENC =      1166.31124243
  Ewald energy   TEWEN  =    -12985.07106125
  -Hartree energ DENC   =     -5152.26573188
  -exchange      EXHF   =         0.00000000
  -V(xc)+E(xc)   XCENC  =       761.56336761
  PAW double counting   =     12967.27660945   -13271.26785113
  entropy T*S    EENTRO =         0.00000000
  eigenvalues    EBANDS =     -1881.99629947
  atomic energy  EATOM  =     18407.79351682
  Solvation  Ediel_sol  =         0.00000000
  ---------------------------------------------------
  free energy    TOTEN  =        12.34379257 eV

  energy without entropy =       12.34379257  energy(sigma->0) =       12.34379257


--------------------------------------------------------------------------------------------------------




----------------------------------------- Iteration    1(   3)  ---------------------------------------


     EDDAV:  cpu time    7.0849: real time    7.1255
 BZINTS: Fermi energy:  6.353105;168.000000 electrons
         Band energy:***********;  BLOECHL correction: -0.081503
       DOS:  cpu time    0.0600: real time    0.0608
    --------------------------------------------
      LOOP:  cpu time    7.1469: real time    7.1883

 eigenvalue-minimisations  :  4056
 total energy-change (2. order) :-0.1562485E+03  (-0.1505490E+03)
 number of electron     168.0000000 magnetization      20.0000000
 augmentation part      168.0000000 magnetization      20.0000000

 Free energy of the ion-electron system (eV)
  ---------------------------------------------------
  alpha Z        PSCENC =      1166.31124243
  Ewald energy   TEWEN  =    -12985.07106125
  -Hartree energ DENC   =     -5152.26573188
  -exchange      EXHF   =         0.00000000
  -V(xc)+E(xc)   XCENC  =       761.56336761
  PAW double counting   =     12967.27660945   -13271.26785113
  entropy T*S    EENTRO =         0.00000000
  eigenvalues    EBANDS =     -2038.24482328
  atomic energy  EATOM  =     18407.79351682
  Solvation  Ediel_sol  =         0.00000000
  ---------------------------------------------------
  free energy    TOTEN  =      -143.90473125 eV

  energy without entropy =     -143.90473125  energy(sigma->0) =     -143.90473125


--------------------------------------------------------------------------------------------------------




----------------------------------------- Iteration    1(   4)  ---------------------------------------


     EDDAV:  cpu time    8.5917: real time    8.6116
 BZINTS: Fermi energy:  6.293083;168.009369 electrons
         Band energy:***********;  BLOECHL correction: -0.084423
       DOS:  cpu time    0.0830: real time    0.0828
    --------------------------------------------
      LOOP:  cpu time    8.6757: real time    8.6965

 eigenvalue-minimisations  :  5096
 total energy-change (2. order) :-0.6399060E+01  (-0.6404132E+01)
 number of electron     168.0000000 magnetization      20.0000000
 augmentation part      168.0000000 magnetization      20.0000000

 Free energy of the ion-electron system (eV)
  ---------------------------------------------------
  alpha Z        PSCENC =      1166.31124243
  Ewald energy   TEWEN  =    -12985.07106125
  -Hartree energ DENC   =     -5152.26573188
  -exchange      EXHF   =         0.00000000
  -V(xc)+E(xc)   XCENC  =       761.56336761
  PAW double counting   =     12967.27660945   -13271.26785113
  entropy T*S    EENTRO =         0.00000000
  eigenvalues    EBANDS =     -2044.64388313
  atomic energy  EATOM  =     18407.79351682
  Solvation  Ediel_sol  =         0.00000000
  ---------------------------------------------------
  free energy    TOTEN  =      -150.30379109 eV

  energy without entropy =     -150.30379109  energy(sigma->0) =     -150.30379109


--------------------------------------------------------------------------------------------------------




----------------------------------------- Iteration    1(   5)  ---------------------------------------


     EDDAV:  cpu time   10.3584: real time   10.3818
 BZINTS: Fermi energy:  6.288177;168.000000 electrons
         Band energy:***********;  BLOECHL correction: -0.084305
       DOS:  cpu time    0.0610: real time    0.0611
    CHARGE:  cpu time    0.1900: real time    0.1901
    MIXING:  cpu time    0.0010: real time    0.0018
    --------------------------------------------
      LOOP:  cpu time   10.6124: real time   10.6378

 eigenvalue-minimisations  :  6288
 total energy-change (2. order) :-0.4738873E+00  (-0.4143634E+00)
 number of electron     168.0000613 magnetization      13.9257593
 augmentation part       51.3776858 magnetization      10.5964587

 Broyden mixing:
  rms(total) = 0.53389E+01    rms(broyden)= 0.53224E+01
  rms(prec ) = 0.75605E+01
  weight for this iteration     100.00

 Free energy of the ion-electron system (eV)
  ---------------------------------------------------
  alpha Z        PSCENC =      1166.31124243
  Ewald energy   TEWEN  =    -12985.07106125
  -Hartree energ DENC   =     -5152.26573188
  -exchange      EXHF   =         0.00000000
  -V(xc)+E(xc)   XCENC  =       761.56336761
  PAW double counting   =     12967.27660945   -13271.26785113
  entropy T*S    EENTRO =         0.00000000
  eigenvalues    EBANDS =     -2045.11777043
  atomic energy  EATOM  =     18407.79351682
  Solvation  Ediel_sol  =         0.00000000
  ---------------------------------------------------
  free energy    TOTEN  =      -150.77767840 eV

  energy without entropy =     -150.77767840  energy(sigma->0) =     -150.77767840


--------------------------------------------------------------------------------------------------------




----------------------------------------- Iteration    1(   6)  ---------------------------------------


    POTLOK:  cpu time    0.2310: real time    0.2330
    SETDIJ:  cpu time    0.0430: real time    0.0432
atom =   1  type =  1  l = 0
 
 onsite density matrix
 
spin component  1
 
  0.9774
 
spin component  2
 
  1.1084
 
 occupancies and eigenvectors
 
  o =  0.9774  v =  1.0000  0.0000      0.0000  0.0000
  o =  1.1084  v =  0.0000  1.0000      0.0000  0.0000
atom =   2  type =  1  l = 0
 
 onsite density matrix
 
spin component  1
 
  0.9774
 
spin component  2
 
  1.1084
 
 occupancies and eigenvectors
 
  o =  0.9774  v =  1.0000  0.0000      0.0000  0.0000
  o =  1.1084  v =  0.0000  1.0000      0.0000  0.0000
atom =   3  type =  1  l = 0
 
 onsite density matrix
 
spin component  1
 
  0.9774
 
spin component  2
 
  1.1084
 
 occupancies and eigenvectors
 
  o =  0.9774  v =  1.0000  0.0000      0.0000  0.0000
  o =  1.1084  v =  0.0000  1.0000      0.0000  0.0000
atom =   4  type =  1  l = 0
 
 onsite density matrix
 
spin component  1
 
  0.9774
 
spin component  2
 
  1.1084
 
 occupancies and eigenvectors
 
  o =  0.9774  v =  1.0000  0.0000      0.0000  0.0000
  o =  1.1084  v =  0.0000  1.0000      0.0000  0.0000
atom =   5  type =  2  l = 2
 
 onsite density matrix
 
spin component  1
 
  0.5379 -0.0028  0.0000  0.0000 -0.0118
 -0.0028  1.1078  0.0000  0.0000  0.0000
  0.0000  0.0000  0.5489  0.0048  0.0000
  0.0000  0.0000  0.0048  1.1078  0.0000
 -0.0118  0.0000  0.0000  0.0000  1.1187
 
spin component  2
 
  0.3877  0.0010  0.0000  0.0000  0.0048
  0.0010  0.1084  0.0000  0.0000 -0.0001
  0.0000  0.0000  0.3801 -0.0017  0.0000
  0.0000  0.0000 -0.0017  0.1084  0.0000
  0.0048 -0.0001  0.0000  0.0000  0.0903
 
 occupancies and eigenvectors
 
  o =  0.0902  v =  0.0000  0.0000  0.0000  0.0000  0.0000 -0.0160  0.0083  0.0000 -0.0014  0.9998      0.0000  0.0000  0.0000  0.0000  0.0000  0.0000  0.0000  0.0000  0.0000  0.0000
  o =  0.1084  v =  0.0000  0.0000  0.0000  0.0000  0.0000  0.0005 -0.1266  0.0063  0.9919  0.0025      0.0000  0.0000  0.0000  0.0000  0.0000  0.0000  0.0000  0.0000  0.0000  0.0000
  o =  0.1084  v =  0.0000  0.0000  0.0000  0.0000  0.0000 -0.0035  0.9919  0.0008  0.1266 -0.0081      0.0000  0.0000  0.0000  0.0000  0.0000  0.0000  0.0000  0.0000  0.0000  0.0000
  o =  0.3801  v =  0.0000  0.0000  0.0000  0.0000  0.0000  0.0014  0.0000 -1.0000  0.0063  0.0001      0.0000  0.0000  0.0000  0.0000  0.0000  0.0000  0.0000  0.0000  0.0000  0.0000
  o =  0.3878  v =  0.0000  0.0000  0.0000  0.0000  0.0000 -0.9999 -0.0037 -0.0014  0.0000 -0.0160      0.0000  0.0000  0.0000  0.0000  0.0000  0.0000  0.0000  0.0000  0.0000  0.0000
  o =  0.5376  v =  0.9998  0.0049  0.0008  0.0000  0.0203  0.0000  0.0000  0.0000  0.0000  0.0000      0.0000  0.0000  0.0000  0.0000  0.0000  0.0000  0.0000  0.0000  0.0000  0.0000
  o =  0.5488  v =  0.0008  0.0000 -1.0000  0.0085  0.0001  0.0000  0.0000  0.0000  0.0000  0.0000      0.0000  0.0000  0.0000  0.0000  0.0000  0.0000  0.0000  0.0000  0.0000  0.0000
  o =  1.1078  v =  0.0047 -0.9829  0.0016  0.1840  0.0058  0.0000  0.0000  0.0000  0.0000  0.0000      0.0000  0.0000  0.0000  0.0000  0.0000  0.0000  0.0000  0.0000  0.0000  0.0000
  o =  1.1078  v = -0.0009  0.1840  0.0084  0.9829 -0.0008  0.0000  0.0000  0.0000  0.0000  0.0000      0.0000  0.0000  0.0000  0.0000  0.0000  0.0000  0.0000  0.0000  0.0000  0.0000
  o =  1.1189  v =  0.0203 -0.0057  0.0000  0.0003 -0.9998  0.0000  0.0000  0.0000  0.0000  0.0000      0.0000  0.0000  0.0000  0.0000  0.0000  0.0000  0.0000  0.0000  0.0000  0.0000
atom =   6  type =  2  l = 2
 
 onsite density matrix
 
spin component  1
 
  0.5379  0.0028  0.0000  0.0000  0.0118
  0.0028  1.1078  0.0000  0.0000  0.0000
  0.0000  0.0000  0.5489 -0.0048  0.0000
  0.0000  0.0000 -0.0048  1.1078  0.0000
  0.0118  0.0000  0.0000  0.0000  1.1187
 
spin component  2
 
  0.3877 -0.0010  0.0000  0.0000 -0.0048
 -0.0010  0.1084  0.0000  0.0000 -0.0001
  0.0000  0.0000  0.3801  0.0017  0.0000
  0.0000  0.0000  0.0017  0.1084  0.0000
 -0.0048 -0.0001  0.0000  0.0000  0.0903
 
 occupancies and eigenvectors
 
  o =  0.0902  v =  0.0000  0.0000  0.0000  0.0000  0.0000 -0.0160 -0.0083  0.0000 -0.0014 -0.9998      0.0000  0.0000  0.0000  0.0000  0.0000  0.0000  0.0000  0.0000  0.0000  0.0000
  o =  0.1084  v =  0.0000  0.0000  0.0000  0.0000  0.0000 -0.0005 -0.1266  0.0063 -0.9919  0.0025      0.0000  0.0000  0.0000  0.0000  0.0000  0.0000  0.0000  0.0000  0.0000  0.0000
  o =  0.1084  v =  0.0000  0.0000  0.0000  0.0000  0.0000 -0.0035 -0.9919 -0.0008  0.1266  0.0081      0.0000  0.0000  0.0000  0.0000  0.0000  0.0000  0.0000  0.0000  0.0000  0.0000
  o =  0.3801  v =  0.0000  0.0000  0.0000  0.0000  0.0000  0.0014  0.0000  1.0000  0.0063 -0.0001      0.0000  0.0000  0.0000  0.0000  0.0000  0.0000  0.0000  0.0000  0.0000  0.0000
  o =  0.3878  v =  0.0000  0.0000  0.0000  0.0000  0.0000 -0.9999  0.0037  0.0014  0.0000  0.0160      0.0000  0.0000  0.0000  0.0000  0.0000  0.0000  0.0000  0.0000  0.0000  0.0000
  o =  0.5376  v =  0.9998 -0.0049 -0.0008  0.0000 -0.0203  0.0000  0.0000  0.0000  0.0000  0.0000      0.0000  0.0000  0.0000  0.0000  0.0000  0.0000  0.0000  0.0000  0.0000  0.0000
  o =  0.5488  v =  0.0008  0.0000  1.0000  0.0085 -0.0001  0.0000  0.0000  0.0000  0.0000  0.0000      0.0000  0.0000  0.0000  0.0000  0.0000  0.0000  0.0000  0.0000  0.0000  0.0000
  o =  1.1078  v = -0.0047 -0.9829  0.0016 -0.1840  0.0058  0.0000  0.0000  0.0000  0.0000  0.0000      0.0000  0.0000  0.0000  0.0000  0.0000  0.0000  0.0000  0.0000  0.0000  0.0000
  o =  1.1078  v =  0.0009  0.1840  0.0084 -0.9829 -0.0008  0.0000  0.0000  0.0000  0.0000  0.0000      0.0000  0.0000  0.0000  0.0000  0.0000  0.0000  0.0000  0.0000  0.0000  0.0000
  o =  1.1189  v = -0.0203 -0.0057  0.0000 -0.0003 -0.9998  0.0000  0.0000  0.0000  0.0000  0.0000      0.0000  0.0000  0.0000  0.0000  0.0000  0.0000  0.0000  0.0000  0.0000  0.0000
atom =   7  type =  2  l = 2
 
 onsite density matrix
 
spin component  1
 
  0.5379  0.0028  0.0000  0.0000 -0.0118
  0.0028  1.1078  0.0000  0.0000  0.0000
  0.0000  0.0000  0.5489 -0.0048  0.0000
  0.0000  0.0000 -0.0048  1.1078  0.0000
 -0.0118  0.0000  0.0000  0.0000  1.1187
 
spin component  2
 
  0.3877 -0.0010  0.0000  0.0000  0.0048
 -0.0010  0.1084  0.0000  0.0000  0.0001
  0.0000  0.0000  0.3801  0.0017  0.0000
  0.0000  0.0000  0.0017  0.1084  0.0000
  0.0048  0.0001  0.0000  0.0000  0.0903
 
 occupancies and eigenvectors
 
  o =  0.0902  v =  0.0000  0.0000  0.0000  0.0000  0.0000 -0.0160 -0.0083  0.0000  0.0014  0.9998      0.0000  0.0000  0.0000  0.0000  0.0000  0.0000  0.0000  0.0000  0.0000  0.0000
  o =  0.1084  v =  0.0000  0.0000  0.0000  0.0000  0.0000  0.0005  0.1266  0.0063 -0.9919  0.0025      0.0000  0.0000  0.0000  0.0000  0.0000  0.0000  0.0000  0.0000  0.0000  0.0000
  o =  0.1084  v =  0.0000  0.0000  0.0000  0.0000  0.0000 -0.0035 -0.9919  0.0008 -0.1266 -0.0081      0.0000  0.0000  0.0000  0.0000  0.0000  0.0000  0.0000  0.0000  0.0000  0.0000
  o =  0.3801  v =  0.0000  0.0000  0.0000  0.0000  0.0000  0.0014  0.0000 -1.0000 -0.0063  0.0001      0.0000  0.0000  0.0000  0.0000  0.0000  0.0000  0.0000  0.0000  0.0000  0.0000
  o =  0.3878  v =  0.0000  0.0000  0.0000  0.0000  0.0000 -0.9999  0.0037 -0.0014  0.0000 -0.0160      0.0000  0.0000  0.0000  0.0000  0.0000  0.0000  0.0000  0.0000  0.0000  0.0000
  o =  0.5376  v =  0.9998 -0.0049  0.0008  0.0000  0.0203  0.0000  0.0000  0.0000  0.0000  0.0000      0.0000  0.0000  0.0000  0.0000  0.0000  0.0000  0.0000  0.0000  0.0000  0.0000
  o =  0.5488  v =  0.0008  0.0000 -1.0000 -0.0085  0.0001  0.0000  0.0000  0.0000  0.0000  0.0000      0.0000  0.0000  0.0000  0.0000  0.0000  0.0000  0.0000  0.0000  0.0000  0.0000
  o =  1.1078  v =  0.0047  0.9829  0.0016 -0.1840  0.0058  0.0000  0.0000  0.0000  0.0000  0.0000      0.0000  0.0000  0.0000  0.0000  0.0000  0.0000  0.0000  0.0000  0.0000  0.0000
  o =  1.1078  v = -0.0009 -0.1840  0.0084 -0.9829 -0.0008  0.0000  0.0000  0.0000  0.0000  0.0000      0.0000  0.0000  0.0000  0.0000  0.0000  0.0000  0.0000  0.0000  0.0000  0.0000
  o =  1.1189  v =  0.0203  0.0057  0.0000 -0.0003 -0.9998  0.0000  0.0000  0.0000  0.0000  0.0000      0.0000  0.0000  0.0000  0.0000  0.0000  0.0000  0.0000  0.0000  0.0000  0.0000
atom =   8  type =  2  l = 2
 
 onsite density matrix
 
spin component  1
 
  0.5379 -0.0028  0.0000  0.0000  0.0118
 -0.0028  1.1078  0.0000  0.0000  0.0000
  0.0000  0.0000  0.5489  0.0048  0.0000
  0.0000  0.0000  0.0048  1.1078  0.0000
  0.0118  0.0000  0.0000  0.0000  1.1187
 
spin component  2
 
  0.3877  0.0010  0.0000  0.0000 -0.0048
  0.0010  0.1084  0.0000  0.0000  0.0001
  0.0000  0.0000  0.3801 -0.0017  0.0000
  0.0000  0.0000 -0.0017  0.1084  0.0000
 -0.0048  0.0001  0.0000  0.0000  0.0903
 
 occupancies and eigenvectors
 
  o =  0.0902  v =  0.0000  0.0000  0.0000  0.0000  0.0000 -0.0160  0.0083  0.0000  0.0014 -0.9998      0.0000  0.0000  0.0000  0.0000  0.0000  0.0000  0.0000  0.0000  0.0000  0.0000
  o =  0.1084  v =  0.0000  0.0000  0.0000  0.0000  0.0000 -0.0005  0.1266  0.0063  0.9919  0.0025      0.0000  0.0000  0.0000  0.0000  0.0000  0.0000  0.0000  0.0000  0.0000  0.0000
  o =  0.1084  v =  0.0000  0.0000  0.0000  0.0000  0.0000 -0.0035  0.9919 -0.0008 -0.1266  0.0081      0.0000  0.0000  0.0000  0.0000  0.0000  0.0000  0.0000  0.0000  0.0000  0.0000
  o =  0.3801  v =  0.0000  0.0000  0.0000  0.0000  0.0000  0.0014  0.0000  1.0000 -0.0063 -0.0001      0.0000  0.0000  0.0000  0.0000  0.0000  0.0000  0.0000  0.0000  0.0000  0.0000
  o =  0.3878  v =  0.0000  0.0000  0.0000  0.0000  0.0000 -0.9999 -0.0037  0.0014  0.0000  0.0160      0.0000  0.0000  0.0000  0.0000  0.0000  0.0000  0.0000  0.0000  0.0000  0.0000
  o =  0.5376  v =  0.9998  0.0049 -0.0008  0.0000 -0.0203  0.0000  0.0000  0.0000  0.0000  0.0000      0.0000  0.0000  0.0000  0.0000  0.0000  0.0000  0.0000  0.0000  0.0000  0.0000
  o =  0.5488  v =  0.0008  0.0000  1.0000 -0.0085 -0.0001  0.0000  0.0000  0.0000  0.0000  0.0000      0.0000  0.0000  0.0000  0.0000  0.0000  0.0000  0.0000  0.0000  0.0000  0.0000
  o =  1.1078  v = -0.0047  0.9829  0.0016  0.1840  0.0058  0.0000  0.0000  0.0000  0.0000  0.0000      0.0000  0.0000  0.0000  0.0000  0.0000  0.0000  0.0000  0.0000  0.0000  0.0000
  o =  1.1078  v =  0.0009 -0.1840  0.0084  0.9829 -0.0008  0.0000  0.0000  0.0000  0.0000  0.0000      0.0000  0.0000  0.0000  0.0000  0.0000  0.0000  0.0000  0.0000  0.0000  0.0000
  o =  1.1189  v = -0.0203  0.0057  0.0000  0.0003 -0.9998  0.0000  0.0000  0.0000  0.0000  0.0000      0.0000  0.0000  0.0000  0.0000  0.0000  0.0000  0.0000  0.0000  0.0000  0.0000
atom =   9  type =  3  l = 0
 
 onsite density matrix
 
spin component  1
 
  0.8426
 
spin component  2
 
  1.0219
 
 occupancies and eigenvectors
 
  o =  0.8426  v =  1.0000  0.0000      0.0000  0.0000
  o =  1.0219  v =  0.0000  1.0000      0.0000  0.0000
atom =  10  type =  3  l = 0
 
 onsite density matrix
 
spin component  1
 
  0.8426
 
spin component  2
 
  1.0219
 
 occupancies and eigenvectors
 
  o =  0.8426  v =  1.0000  0.0000      0.0000  0.0000
  o =  1.0219  v =  0.0000  1.0000      0.0000  0.0000
atom =  11  type =  3  l = 0
 
 onsite density matrix
 
spin component  1
 
  0.8426
 
spin component  2
 
  1.0219
 
 occupancies and eigenvectors
 
  o =  0.8426  v =  1.0000  0.0000      0.0000  0.0000
  o =  1.0219  v =  0.0000  1.0000      0.0000  0.0000
atom =  12  type =  3  l = 0
 
 onsite density matrix
 
spin component  1
 
  0.8431
 
spin component  2
 
  1.0216
 
 occupancies and eigenvectors
 
  o =  0.8431  v =  1.0000  0.0000      0.0000  0.0000
  o =  1.0216  v =  0.0000  1.0000      0.0000  0.0000
atom =  13  type =  3  l = 0
 
 onsite density matrix
 
spin component  1
 
  0.8426
 
spin component  2
 
  1.0219
 
 occupancies and eigenvectors
 
  o =  0.8426  v =  1.0000  0.0000      0.0000  0.0000
  o =  1.0219  v =  0.0000  1.0000      0.0000  0.0000
atom =  14  type =  3  l = 0
 
 onsite density matrix
 
spin component  1
 
  0.8426
 
spin component  2
 
  1.0219
 
 occupancies and eigenvectors
 
  o =  0.8426  v =  1.0000  0.0000      0.0000  0.0000
  o =  1.0219  v =  0.0000  1.0000      0.0000  0.0000
atom =  15  type =  3  l = 0
 
 onsite density matrix
 
spin component  1
 
  0.8431
 
spin component  2
 
  1.0216
 
 occupancies and eigenvectors
 
  o =  0.8431  v =  1.0000  0.0000      0.0000  0.0000
  o =  1.0216  v =  0.0000  1.0000      0.0000  0.0000
atom =  16  type =  3  l = 0
 
 onsite density matrix
 
spin component  1
 
  0.8426
 
spin component  2
 
  1.0219
 
 occupancies and eigenvectors
 
  o =  0.8426  v =  1.0000  0.0000      0.0000  0.0000
  o =  1.0219  v =  0.0000  1.0000      0.0000  0.0000
atom =  17  type =  3  l = 0
 
 onsite density matrix
 
spin component  1
 
  0.8431
 
spin component  2
 
  1.0216
 
 occupancies and eigenvectors
 
  o =  0.8431  v =  1.0000  0.0000      0.0000  0.0000
  o =  1.0216  v =  0.0000  1.0000      0.0000  0.0000
atom =  18  type =  3  l = 0
 
 onsite density matrix
 
spin component  1
 
  0.8431
 
spin component  2
 
  1.0216
 
 occupancies and eigenvectors
 
  o =  0.8431  v =  1.0000  0.0000      0.0000  0.0000
  o =  1.0216  v =  0.0000  1.0000      0.0000  0.0000
atom =  19  type =  3  l = 0
 
 onsite density matrix
 
spin component  1
 
  0.8426
 
spin component  2
 
  1.0219
 
 occupancies and eigenvectors
 
  o =  0.8426  v =  1.0000  0.0000      0.0000  0.0000
  o =  1.0219  v =  0.0000  1.0000      0.0000  0.0000
atom =  20  type =  3  l = 0
 
 onsite density matrix
 
spin component  1
 
  0.8426
 
spin component  2
 
  1.0219
 
 occupancies and eigenvectors
 
  o =  0.8426  v =  1.0000  0.0000      0.0000  0.0000
  o =  1.0219  v =  0.0000  1.0000      0.0000  0.0000
    EDDIAG:  cpu time    0.9009: real time    0.9015
  RMM-DIIS:  cpu time    3.2195: real time    3.2250
    ORTHCH:  cpu time    0.2140: real time    0.2135
 BZINTS: Fermi energy:  2.440110;168.000000 electrons
         Band energy:***********;  BLOECHL correction: -0.133787
       DOS:  cpu time    0.0660: real time    0.0661
    CHARGE:  cpu time    0.1920: real time    0.1925
    MIXING:  cpu time    0.0020: real time    0.0018
    --------------------------------------------
      LOOP:  cpu time    4.8703: real time    4.8805

 eigenvalue-minimisations  :  3917
 total energy-change (2. order) :-0.2105900E+02  (-0.5091750E+02)
 number of electron     168.0000699 magnetization      11.6384725
 augmentation part       58.5679696 magnetization       9.9478477

 Broyden mixing:
  rms(total) = 0.82401E+01    rms(broyden)= 0.82342E+01
  rms(prec ) = 0.11941E+02
  weight for this iteration     100.00

 eigenvalues of (default mixing * dielectric matrix)
  average eigenvalue GAMMA=   0.4160
  0.4160

 Free energy of the ion-electron system (eV)
  ---------------------------------------------------
  alpha Z        PSCENC =      1166.31124243
  Ewald energy   TEWEN  =    -12985.07106125
  -Hartree energ DENC   =     -4885.68514368
  -exchange      EXHF   =         0.00000000
  -V(xc)+E(xc)   XCENC  =       762.29047493
  PAW double counting   =     12929.18364324   -13211.96153798
  entropy T*S    EENTRO =         0.00000000
  eigenvalues    EBANDS =     -2354.69781495
  atomic energy  EATOM  =     18407.79351682
  Solvation  Ediel_sol  =         0.00000000
  ---------------------------------------------------
  free energy    TOTEN  =      -171.83668044 eV

  energy without entropy =     -171.83668044  energy(sigma->0) =     -171.83668044


--------------------------------------------------------------------------------------------------------




----------------------------------------- Iteration    1(   7)  ---------------------------------------


    POTLOK:  cpu time    0.2310: real time    0.2310
    SETDIJ:  cpu time    0.0430: real time    0.0429
atom =   1  type =  1  l = 0
 
 onsite density matrix
 
spin component  1
 
  1.0108
 
spin component  2
 
  1.0615
 
 occupancies and eigenvectors
 
  o =  1.0108  v =  1.0000  0.0000      0.0000  0.0000
  o =  1.0615  v =  0.0000  1.0000      0.0000  0.0000
atom =   2  type =  1  l = 0
 
 onsite density matrix
 
spin component  1
 
  1.0108
 
spin component  2
 
  1.0615
 
 occupancies and eigenvectors
 
  o =  1.0108  v =  1.0000  0.0000      0.0000  0.0000
  o =  1.0615  v =  0.0000  1.0000      0.0000  0.0000
atom =   3  type =  1  l = 0
 
 onsite density matrix
 
spin component  1
 
  1.0108
 
spin component  2
 
  1.0615
 
 occupancies and eigenvectors
 
  o =  1.0108  v =  1.0000  0.0000      0.0000  0.0000
  o =  1.0615  v =  0.0000  1.0000      0.0000  0.0000
atom =   4  type =  1  l = 0
 
 onsite density matrix
 
spin component  1
 
  1.0108
 
spin component  2
 
  1.0615
 
 occupancies and eigenvectors
 
  o =  1.0108  v =  1.0000  0.0000      0.0000  0.0000
  o =  1.0615  v =  0.0000  1.0000      0.0000  0.0000
atom =   5  type =  2  l = 2
 
 onsite density matrix
 
spin component  1
 
  0.5810 -0.0017  0.0000  0.0000 -0.0071
 -0.0017  0.8976  0.0001 -0.0002  0.0001
  0.0000  0.0001  0.5860  0.0028  0.0001
  0.0000 -0.0002  0.0028  0.8978 -0.0003
 -0.0071  0.0001  0.0001 -0.0003  0.9045
 
spin component  2
 
  0.4747  0.0002  0.0000  0.0000  0.0013
  0.0002  0.4083 -0.0002  0.0004 -0.0003
  0.0000 -0.0002  0.4718 -0.0001 -0.0001
  0.0000  0.0004 -0.0001  0.4079  0.0005
  0.0013 -0.0003 -0.0001  0.0005  0.3926
 
 occupancies and eigenvectors
 
  o =  0.3926  v =  0.0000  0.0000  0.0000  0.0000  0.0000 -0.0163  0.0174  0.0015 -0.0333  0.9992      0.0000  0.0000  0.0000  0.0000  0.0000  0.0000  0.0000  0.0000  0.0000  0.0000
  o =  0.4077  v =  0.0000  0.0000  0.0000  0.0000  0.0000  0.0005 -0.4829  0.0000  0.8749  0.0376      0.0000  0.0000  0.0000  0.0000  0.0000  0.0000  0.0000  0.0000  0.0000  0.0000
  o =  0.4085  v =  0.0000  0.0000  0.0000  0.0000  0.0000 -0.0025  0.8755  0.0044  0.4832  0.0008      0.0000  0.0000  0.0000  0.0000  0.0000  0.0000  0.0000  0.0000  0.0000  0.0000
  o =  0.4718  v =  0.0000  0.0000  0.0000  0.0000  0.0000  0.0023  0.0039 -1.0000  0.0021  0.0015      0.0000  0.0000  0.0000  0.0000  0.0000  0.0000  0.0000  0.0000  0.0000  0.0000
  o =  0.4748  v =  0.0000  0.0000  0.0000  0.0000  0.0000 -0.9999 -0.0027 -0.0024 -0.0002 -0.0162      0.0000  0.0000  0.0000  0.0000  0.0000  0.0000  0.0000  0.0000  0.0000  0.0000
  o =  0.5808  v =  0.9997  0.0052 -0.0007  0.0001  0.0221  0.0000  0.0000  0.0000  0.0000  0.0000      0.0000  0.0000  0.0000  0.0000  0.0000  0.0000  0.0000  0.0000  0.0000  0.0000
  o =  0.5860  v = -0.0007  0.0005 -1.0000  0.0089  0.0003  0.0000  0.0000  0.0000  0.0000  0.0000      0.0000  0.0000  0.0000  0.0000  0.0000  0.0000  0.0000  0.0000  0.0000  0.0000
  o =  0.8975  v = -0.0048  0.8799  0.0046  0.4750  0.0056  0.0000  0.0000  0.0000  0.0000  0.0000      0.0000  0.0000  0.0000  0.0000  0.0000  0.0000  0.0000  0.0000  0.0000  0.0000
  o =  0.8979  v =  0.0014 -0.4748  0.0076  0.8788  0.0466  0.0000  0.0000  0.0000  0.0000  0.0000      0.0000  0.0000  0.0000  0.0000  0.0000  0.0000  0.0000  0.0000  0.0000  0.0000
  o =  0.9047  v = -0.0221  0.0171 -0.0001 -0.0437  0.9987  0.0000  0.0000  0.0000  0.0000  0.0000      0.0000  0.0000  0.0000  0.0000  0.0000  0.0000  0.0000  0.0000  0.0000  0.0000
atom =   6  type =  2  l = 2
 
 onsite density matrix
 
spin component  1
 
  0.5810  0.0017  0.0000  0.0000  0.0071
  0.0017  0.8976  0.0001  0.0002  0.0001
  0.0000  0.0001  0.5860 -0.0028  0.0001
  0.0000  0.0002 -0.0028  0.8978  0.0003
  0.0071  0.0001  0.0001  0.0003  0.9045
 
spin component  2
 
  0.4747 -0.0002  0.0000  0.0000 -0.0013
 -0.0002  0.4083 -0.0002 -0.0004 -0.0003
  0.0000 -0.0002  0.4718  0.0001 -0.0001
  0.0000 -0.0004  0.0001  0.4079 -0.0005
 -0.0013 -0.0003 -0.0001 -0.0005  0.3926
 
 occupancies and eigenvectors
 
  o =  0.3926  v =  0.0000  0.0000  0.0000  0.0000  0.0000 -0.0163 -0.0174 -0.0015 -0.0333 -0.9992      0.0000  0.0000  0.0000  0.0000  0.0000  0.0000  0.0000  0.0000  0.0000  0.0000
  o =  0.4077  v =  0.0000  0.0000  0.0000  0.0000  0.0000 -0.0005 -0.4829  0.0000 -0.8749  0.0376      0.0000  0.0000  0.0000  0.0000  0.0000  0.0000  0.0000  0.0000  0.0000  0.0000
  o =  0.4085  v =  0.0000  0.0000  0.0000  0.0000  0.0000 -0.0025 -0.8755 -0.0044  0.4832 -0.0008      0.0000  0.0000  0.0000  0.0000  0.0000  0.0000  0.0000  0.0000  0.0000  0.0000
  o =  0.4718  v =  0.0000  0.0000  0.0000  0.0000  0.0000  0.0023 -0.0039  1.0000  0.0021 -0.0015      0.0000  0.0000  0.0000  0.0000  0.0000  0.0000  0.0000  0.0000  0.0000  0.0000
  o =  0.4748  v =  0.0000  0.0000  0.0000  0.0000  0.0000 -0.9999  0.0027  0.0024 -0.0002  0.0162      0.0000  0.0000  0.0000  0.0000  0.0000  0.0000  0.0000  0.0000  0.0000  0.0000
  o =  0.5808  v =  0.9997 -0.0052  0.0007  0.0001 -0.0221  0.0000  0.0000  0.0000  0.0000  0.0000      0.0000  0.0000  0.0000  0.0000  0.0000  0.0000  0.0000  0.0000  0.0000  0.0000
  o =  0.5860  v = -0.0007 -0.0005  1.0000  0.0089 -0.0003  0.0000  0.0000  0.0000  0.0000  0.0000      0.0000  0.0000  0.0000  0.0000  0.0000  0.0000  0.0000  0.0000  0.0000  0.0000
  o =  0.8975  v =  0.0048  0.8799  0.0046 -0.4750  0.0056  0.0000  0.0000  0.0000  0.0000  0.0000      0.0000  0.0000  0.0000  0.0000  0.0000  0.0000  0.0000  0.0000  0.0000  0.0000
  o =  0.8979  v = -0.0014 -0.4748  0.0076 -0.8788  0.0466  0.0000  0.0000  0.0000  0.0000  0.0000      0.0000  0.0000  0.0000  0.0000  0.0000  0.0000  0.0000  0.0000  0.0000  0.0000
  o =  0.9047  v =  0.0221  0.0171 -0.0001  0.0437  0.9987  0.0000  0.0000  0.0000  0.0000  0.0000      0.0000  0.0000  0.0000  0.0000  0.0000  0.0000  0.0000  0.0000  0.0000  0.0000
atom =   7  type =  2  l = 2
 
 onsite density matrix
 
spin component  1
 
  0.5810  0.0017  0.0000  0.0000 -0.0071
  0.0017  0.8976 -0.0001 -0.0002 -0.0001
  0.0000 -0.0001  0.5860 -0.0028  0.0001
  0.0000 -0.0002 -0.0028  0.8978  0.0003
 -0.0071 -0.0001  0.0001  0.0003  0.9045
 
spin component  2
 
  0.4747 -0.0002  0.0000  0.0000  0.0013
 -0.0002  0.4083  0.0002  0.0004  0.0003
  0.0000  0.0002  0.4718  0.0001 -0.0001
  0.0000  0.0004  0.0001  0.4079 -0.0005
  0.0013  0.0003 -0.0001 -0.0005  0.3926
 
 occupancies and eigenvectors
 
  o =  0.3926  v =  0.0000  0.0000  0.0000  0.0000  0.0000 -0.0163 -0.0174  0.0015  0.0333  0.9992      0.0000  0.0000  0.0000  0.0000  0.0000  0.0000  0.0000  0.0000  0.0000  0.0000
  o =  0.4077  v =  0.0000  0.0000  0.0000  0.0000  0.0000  0.0005  0.4829  0.0000 -0.8749  0.0376      0.0000  0.0000  0.0000  0.0000  0.0000  0.0000  0.0000  0.0000  0.0000  0.0000
  o =  0.4085  v =  0.0000  0.0000  0.0000  0.0000  0.0000 -0.0025 -0.8755  0.0044 -0.4832  0.0008      0.0000  0.0000  0.0000  0.0000  0.0000  0.0000  0.0000  0.0000  0.0000  0.0000
  o =  0.4718  v =  0.0000  0.0000  0.0000  0.0000  0.0000  0.0023 -0.0039 -1.0000 -0.0021  0.0015      0.0000  0.0000  0.0000  0.0000  0.0000  0.0000  0.0000  0.0000  0.0000  0.0000
  o =  0.4748  v =  0.0000  0.0000  0.0000  0.0000  0.0000 -0.9999  0.0027 -0.0024  0.0002 -0.0162      0.0000  0.0000  0.0000  0.0000  0.0000  0.0000  0.0000  0.0000  0.0000  0.0000
  o =  0.5808  v =  0.9997 -0.0052 -0.0007 -0.0001  0.0221  0.0000  0.0000  0.0000  0.0000  0.0000      0.0000  0.0000  0.0000  0.0000  0.0000  0.0000  0.0000  0.0000  0.0000  0.0000
  o =  0.5860  v = -0.0007 -0.0005 -1.0000 -0.0089  0.0003  0.0000  0.0000  0.0000  0.0000  0.0000      0.0000  0.0000  0.0000  0.0000  0.0000  0.0000  0.0000  0.0000  0.0000  0.0000
  o =  0.8975  v = -0.0048 -0.8799  0.0046 -0.4750  0.0056  0.0000  0.0000  0.0000  0.0000  0.0000      0.0000  0.0000  0.0000  0.0000  0.0000  0.0000  0.0000  0.0000  0.0000  0.0000
  o =  0.8979  v =  0.0014  0.4748  0.0076 -0.8788  0.0466  0.0000  0.0000  0.0000  0.0000  0.0000      0.0000  0.0000  0.0000  0.0000  0.0000  0.0000  0.0000  0.0000  0.0000  0.0000
  o =  0.9047  v = -0.0221 -0.0171 -0.0001  0.0437  0.9987  0.0000  0.0000  0.0000  0.0000  0.0000      0.0000  0.0000  0.0000  0.0000  0.0000  0.0000  0.0000  0.0000  0.0000  0.0000
atom =   8  type =  2  l = 2
 
 onsite density matrix
 
spin component  1
 
  0.5810 -0.0017  0.0000  0.0000  0.0071
 -0.0017  0.8976 -0.0001  0.0002 -0.0001
  0.0000 -0.0001  0.5860  0.0028  0.0001
  0.0000  0.0002  0.0028  0.8978 -0.0003
  0.0071 -0.0001  0.0001 -0.0003  0.9045
 
spin component  2
 
  0.4747  0.0002  0.0000  0.0000 -0.0013
[...]
     40     -11.4820      1.00000
     41      -2.6508      1.00000
     42      -2.4697      1.00000
     43      -2.3928      1.00000
     44      -2.2139      1.00000
     45      -1.4336      1.00000
     46      -1.4164      1.00000
     47      -1.2624      1.00000
     48      -1.2479      1.00000
     49      -1.2434      1.00000
     50      -1.1360      1.00000
     51      -1.0667      1.00000
     52      -1.0227      1.00000
     53      -0.9159      1.00000
     54      -0.8455      1.00000
     55      -0.7649      1.00000
     56      -0.5324      1.00000
     57      -0.1543      1.00000
     58      -0.1298      1.00000
     59       0.2459      1.00000
     60       0.3018      1.00000
     61       0.4941      1.00000
     62       0.7187      1.00000
     63       0.7817      1.00000
     64       0.7997      1.00000
     65       0.9228      1.00000
     66       1.2195      1.00000
     67       1.2664      1.00000
     68       1.3205      1.00000
     69       1.3636      1.00000
     70       1.3996      1.00000
     71       1.4771      1.00000
     72       1.5338      1.00000
     73       1.7997      1.00000
     74       1.8188      1.00000
     75       2.2881      1.00000
     76       2.3521      1.05138
     77       4.3824      0.00000
     78       4.5016      0.00000
     79       4.7251      0.00000
     80       4.8318      0.00000
     81       4.8885      0.00000
     82       4.8976      0.00000
     83       5.0091      0.00000
     84       5.0137      0.00000
     85       5.0569      0.00000
     86       5.1346      0.00000
     87       5.1606      0.00000
     88       5.1708      0.00000
     89       5.1852      0.00000
     90       5.2123      0.00000
     91       5.2844      0.00000
     92       5.3925      0.00000
     93       6.3045      0.00000
     94       6.5519      0.00000
     95       6.9726      0.00000
     96       7.1858      0.00000
     97      10.1444      0.00000
     98      10.4615      0.00000
     99      10.5418      0.00000
    100      10.6071      0.00000
    101      10.7891      0.00000
    102      10.9086      0.00000
    103      10.9785      0.00000
    104      11.1636      0.00000
    105      11.3512      0.00000
    106      11.3750      0.00000
    107      11.4708      0.00000
    108      11.5199      0.00000
    109      11.6813      0.00000
    110      11.9035      0.00000


--------------------------------------------------------------------------------------------------------


 soft charge-density along one line, spin component           1
         0         1         2         3         4         5         6         7         8         9
 total charge-density along one line
 
 soft charge-density along one line, spin component           2
         0         1         2         3         4         5         6         7         8         9
 total charge-density along one line
 
 pseudopotential strength for first ion, spin component:           1
-11.439  -7.726   0.000   0.000   0.000   0.000   0.000   0.000
 -7.726  -6.027   0.000   0.000   0.000   0.000   0.000   0.000
  0.000   0.000 -14.669   0.000  -0.001   0.106   0.000   0.000
  0.000   0.000   0.000 -14.669   0.000   0.000   0.106   0.000
  0.000   0.000  -0.001   0.000 -14.669   0.000   0.000   0.106
  0.000   0.000   0.106   0.000   0.000   0.045   0.000   0.000
  0.000   0.000   0.000   0.106   0.000   0.000   0.045   0.000
  0.000   0.000   0.000   0.000   0.106   0.000   0.000   0.045
  0.000   0.000   0.000   0.000   0.000   0.000   0.000   0.000
  0.000   0.000   0.000   0.000   0.000   0.000   0.000   0.000
  0.000   0.000   0.000   0.000   0.000   0.000   0.000   0.000
  0.000   0.000   0.000   0.000   0.000   0.000   0.000   0.000
  0.000   0.000   0.000   0.000   0.000   0.000   0.000   0.000
  0.000   0.000   0.000   0.000   0.000   0.000   0.000   0.000
  0.000   0.000   0.000   0.000   0.000   0.000   0.000   0.000
  0.000   0.000   0.000   0.000   0.000   0.000   0.000   0.000
  0.000   0.000   0.000   0.000   0.000   0.000   0.000   0.000
  0.000   0.000   0.000   0.000   0.000   0.000   0.000   0.000
 pseudopotential strength for first ion, spin component:           2
-11.442  -7.723   0.000   0.000   0.000   0.000   0.000   0.000
 -7.723  -6.027   0.000   0.000   0.000   0.000   0.000   0.000
  0.000   0.000 -14.668   0.000  -0.001   0.106   0.000   0.000
  0.000   0.000   0.000 -14.668   0.000   0.000   0.106   0.000
  0.000   0.000  -0.001   0.000 -14.668   0.000   0.000   0.106
  0.000   0.000   0.106   0.000   0.000   0.045   0.000   0.000
  0.000   0.000   0.000   0.106   0.000   0.000   0.045   0.000
  0.000   0.000   0.000   0.000   0.106   0.000   0.000   0.045
  0.000   0.000   0.000   0.000   0.000   0.000   0.000   0.000
  0.000   0.000   0.000   0.000   0.000   0.000   0.000   0.000
  0.000   0.000   0.000   0.000   0.000   0.000   0.000   0.000
  0.000   0.000   0.000   0.000   0.000   0.000   0.000   0.000
  0.000   0.000   0.000   0.000   0.000   0.000   0.000   0.000
  0.000   0.000   0.000   0.000   0.000   0.000   0.000   0.000
  0.000   0.000   0.000   0.000   0.000   0.000   0.000   0.000
  0.000   0.000   0.000   0.000   0.000   0.000   0.000   0.000
  0.000   0.000   0.000   0.000   0.000   0.000   0.000   0.000
  0.000   0.000   0.000   0.000   0.000   0.000   0.000   0.000
 total augmentation occupancy for first ion, spin component:           1
  2.110  -0.232   0.000   0.000   0.000   0.000   0.000   0.000   0.003   0.000   0.000   0.000   0.000  -0.009   0.000  -0.001
 -0.232   0.474   0.000   0.000   0.000   0.000   0.000   0.000  -0.005   0.000  -0.001   0.000   0.000   0.021   0.000   0.002
  0.000   0.000   2.025   0.000  -0.001   0.085   0.000   0.003  -0.001   0.000   0.000   0.000   0.000   0.002   0.000   0.000
  0.000   0.000   0.000   2.025   0.000   0.000   0.085   0.000   0.000   0.000   0.000  -0.001   0.000   0.000   0.000   0.000
  0.000   0.000  -0.001   0.000   2.025   0.003   0.000   0.085   0.000   0.000  -0.001   0.000   0.001   0.000   0.000   0.003
  0.000   0.000   0.085   0.000   0.003   0.300   0.000  -0.005   0.001   0.000   0.000   0.000   0.000  -0.006   0.000   0.000
  0.000   0.000   0.000   0.085   0.000   0.000   0.299   0.000   0.000   0.000   0.000   0.002   0.000   0.000   0.000   0.000
  0.000   0.000   0.003   0.000   0.085  -0.005   0.000   0.300   0.000   0.000   0.002   0.000  -0.002   0.000   0.000  -0.010
  0.003  -0.005  -0.001   0.000   0.000   0.001   0.000   0.000   0.066   0.000  -0.002   0.000   0.000  -0.289   0.000   0.007
  0.000   0.000   0.000   0.000   0.000   0.000   0.000   0.000   0.000   0.090   0.000  -0.004   0.000   0.000  -0.413   0.000
  0.000  -0.001   0.000   0.000  -0.001   0.000   0.000   0.002  -0.002   0.000   0.066   0.000   0.000   0.007   0.000  -0.291
  0.000   0.000   0.000  -0.001   0.000   0.000   0.002   0.000   0.000  -0.004   0.000   0.090   0.000   0.000   0.019   0.000
  0.000   0.000   0.000   0.000   0.001   0.000   0.000  -0.002   0.000   0.000   0.000   0.000   0.091   0.000   0.000   0.000
 -0.009   0.021   0.002   0.000   0.000  -0.006   0.000   0.000  -0.289   0.000   0.007   0.000   0.000   1.338   0.000  -0.033
  0.000   0.000   0.000   0.000   0.000   0.000   0.000   0.000   0.000  -0.413   0.000   0.019   0.000   0.000   2.027   0.000
 -0.001   0.002   0.000   0.000   0.003   0.000   0.000  -0.010   0.007   0.000  -0.291   0.000   0.000  -0.033   0.000   1.348
  0.000   0.000   0.000   0.003   0.000   0.000  -0.010   0.000   0.000   0.019   0.000  -0.413   0.000   0.000  -0.092   0.000
  0.000   0.000   0.000   0.000  -0.003   0.001   0.000   0.010   0.000   0.000   0.000   0.000  -0.417   0.000   0.000   0.000
 total augmentation occupancy for first ion, spin component:           2
  0.003  -0.007   0.000   0.000   0.000   0.000   0.000   0.000   0.000   0.000   0.000   0.000   0.000   0.000   0.000   0.000
 -0.007   0.014   0.000   0.000   0.000   0.000   0.000   0.000   0.000   0.000   0.000   0.000   0.000   0.001   0.000  -0.001
  0.000   0.000   0.000   0.000   0.000  -0.001   0.000   0.000   0.000   0.000   0.000   0.000   0.000   0.000   0.000   0.000
  0.000   0.000   0.000   0.000   0.000   0.000  -0.001   0.000   0.000   0.000   0.000   0.000   0.000   0.000   0.000   0.000
  0.000   0.000   0.000   0.000   0.000   0.000   0.000  -0.001   0.000   0.000   0.000   0.000   0.000   0.000   0.000   0.000
  0.000   0.000  -0.001   0.000   0.000   0.005   0.000   0.000   0.000   0.000   0.000   0.000   0.000   0.000   0.000   0.000
  0.000   0.000   0.000  -0.001   0.000   0.000   0.005   0.000   0.000   0.000   0.000   0.000   0.000   0.000   0.000   0.000
  0.000   0.000   0.000   0.000  -0.001   0.000   0.000   0.005   0.000   0.000   0.000   0.000   0.000   0.000   0.000   0.000
  0.000   0.000   0.000   0.000   0.000   0.000   0.000   0.000   0.004   0.000   0.000   0.000   0.000  -0.014   0.000   0.000
  0.000   0.000   0.000   0.000   0.000   0.000   0.000   0.000   0.000   0.001   0.000   0.000   0.000   0.000   0.000   0.000
  0.000   0.000   0.000   0.000   0.000   0.000   0.000   0.000   0.000   0.000   0.004   0.000   0.000   0.000   0.000  -0.014
  0.000   0.000   0.000   0.000   0.000   0.000   0.000   0.000   0.000   0.000   0.000   0.001   0.000   0.000   0.001   0.000
  0.000   0.000   0.000   0.000   0.000   0.000   0.000   0.000   0.000   0.000   0.000   0.000   0.000   0.000   0.000   0.000
  0.000   0.001   0.000   0.000   0.000   0.000   0.000   0.000  -0.014   0.000   0.000   0.000   0.000   0.049   0.000   0.000
  0.000   0.000   0.000   0.000   0.000   0.000   0.000   0.000   0.000   0.000   0.000   0.001   0.000   0.000  -0.002   0.000
  0.000  -0.001   0.000   0.000   0.000   0.000   0.000   0.000   0.000   0.000  -0.014   0.000   0.000   0.000   0.000   0.051
  0.000   0.000   0.000   0.000   0.000   0.000   0.000   0.000   0.000   0.001   0.000   0.000   0.000   0.000  -0.002   0.000
  0.000   0.000   0.000   0.000   0.000   0.000   0.000   0.000   0.000   0.000   0.000   0.000   0.001   0.000   0.000   0.000


------------------------ aborting loop because EDIFF is reached ----------------------------------------


    CHARGE:  cpu time    0.1840: real time    0.1844
    FORLOC:  cpu time    0.0050: real time    0.0047
    FORNL :  cpu time    1.1418: real time    1.1449
    STRESS:  cpu time    3.4455: real time    3.4518
    FORCOR:  cpu time    0.2320: real time    0.2312
    FORHAR:  cpu time    0.0120: real time    0.0126
    MIXING:  cpu time    0.0040: real time    0.0040
    OFIELD:  cpu time    0.0000: real time    0.0001

  FORCE on cell =-STRESS in cart. coord.  units (eV):
  Direction    XX          YY          ZZ          XY          YZ          ZX
  --------------------------------------------------------------------------------------
  Alpha Z  1166.31124  1166.31124  1166.31124
  Ewald   -4320.76353 -4321.02848 -4343.31422     0.00000     0.00000     0.00000
  Hartree  1653.85410  1653.68009  1641.44171     0.00000     0.00000     0.00000
  E(xc)    -873.29450  -873.29502  -873.31379     0.00000     0.00000     0.00000
  Local       4.60831     5.04599    37.62717     0.00000     0.00000     0.00000
  n-local  -529.87900  -529.89479  -529.57279    -0.65965    -0.38389    -0.39478
  augment   659.50766   659.50886   660.20598     0.00000     0.00000     0.00000
  Kinetic  2239.85453  2239.86621  2240.65575    -0.96556     1.53168     1.53218
  Fock        0.00000     0.00000     0.00000     0.00000     0.00000     0.00000
  -------------------------------------------------------------------------------------
  Total       0.19881     0.19411     0.04104     0.00000     0.00000     0.00000
  in kB       1.35088     1.31893     0.27886     0.00000     0.00000     0.00000
  external pressure =        0.98 kB  Pullay stress =        0.00 kB


 VOLUME and BASIS-vectors are now :
 -----------------------------------------------------------------------------
  energy-cutoff  :      300.00
  volume of cell :      235.79
      direct lattice vectors                 reciprocal lattice vectors
     5.499593552  0.000000000  0.000000000     0.181831619  0.000000000  0.000000000
     0.000000000  5.499200425  0.000000000     0.000000000  0.181844618  0.000000000
     0.000000000  0.000000000  7.796572639     0.000000000  0.000000000  0.128261487

  length of vectors
     5.499593552  5.499200425  7.796572639     0.181831619  0.181844618  0.128261487


 FORCES acting on ions
    electron-ion (+dipol)            ewald-force                    non-local-force                 convergence-correction
 -----------------------------------------------------------------------------------------------
   0.705E-01 0.123E+00 -.113E-07   -.712E-01 -.122E+00 0.426E-13   -.358E-03 -.126E-02 -.847E-21   0.178E-03 -.316E-04 0.295E-12
   0.705E-01 -.123E+00 0.628E-08   -.712E-01 0.122E+00 -.284E-13   -.358E-03 0.126E-02 0.847E-21   0.178E-03 0.316E-04 -.182E-12
   -.705E-01 0.123E+00 -.628E-08   0.712E-01 -.122E+00 0.711E-13   0.358E-03 -.126E-02 0.000E+00   -.178E-03 -.316E-04 0.262E-12
   -.705E-01 -.123E+00 0.113E-07   0.712E-01 0.122E+00 0.000E+00   0.358E-03 0.126E-02 0.000E+00   -.178E-03 0.316E-04 -.163E-12
   0.166E-11 0.148E-11 -.220E-11   0.515E-13 0.215E-11 0.215E-11   0.000E+00 0.000E+00 0.000E+00   -.260E-12 -.273E-12 0.307E-14
   -.103E-12 0.518E-12 -.896E-12   0.355E-14 -.108E-10 0.197E-11   0.000E+00 0.000E+00 0.000E+00   -.180E-12 -.427E-13 -.292E-12
   0.141E-11 -.562E-11 -.920E-12   0.284E-13 0.210E-11 -.215E-11   0.000E+00 0.000E+00 0.000E+00   -.272E-12 -.203E-12 0.104E-11
   0.430E-12 0.251E-11 0.345E-11   0.568E-13 -.108E-10 -.196E-11   0.000E+00 0.000E+00 0.000E+00   -.173E-12 -.623E-13 0.678E-12
   0.254E+01 0.256E+01 -.121E+01   -.270E+01 -.272E+01 0.128E+01   0.153E+00 0.154E+00 -.616E-01   0.642E-03 0.645E-03 -.182E-03
   -.254E+01 -.256E+01 -.121E+01   0.270E+01 0.272E+01 0.128E+01   -.153E+00 -.154E+00 -.616E-01   -.642E-03 -.645E-03 -.182E-03
   -.254E+01 0.256E+01 -.121E+01   0.270E+01 -.272E+01 0.128E+01   -.153E+00 0.154E+00 -.616E-01   -.642E-03 0.645E-03 -.182E-03
   0.176E+01 -.444E-01 -.462E-06   -.185E+01 0.522E-01 -.176E-11   0.899E-01 -.789E-02 -.271E-19   0.395E-03 0.122E-04 0.131E-12
   0.254E+01 -.256E+01 -.121E+01   -.270E+01 0.272E+01 0.128E+01   0.153E+00 -.154E+00 -.616E-01   0.642E-03 -.645E-03 -.182E-03
   -.254E+01 0.256E+01 0.121E+01   0.270E+01 -.272E+01 -.128E+01   -.153E+00 0.154E+00 0.616E-01   -.642E-03 0.645E-03 0.182E-03
   0.176E+01 0.444E-01 -.460E-06   -.185E+01 -.522E-01 0.180E-11   0.899E-01 0.789E-02 0.000E+00   0.395E-03 -.122E-04 -.153E-12
   -.254E+01 -.256E+01 0.121E+01   0.270E+01 0.272E+01 -.128E+01   -.153E+00 -.154E+00 0.616E-01   -.642E-03 -.645E-03 0.182E-03
   -.176E+01 0.444E-01 0.462E-06   0.185E+01 -.522E-01 -.347E-11   -.899E-01 0.789E-02 0.271E-19   -.395E-03 -.122E-04 -.132E-12
   -.176E+01 -.444E-01 0.460E-06   0.185E+01 0.522E-01 -.353E-11   -.899E-01 -.789E-02 0.000E+00   -.395E-03 0.122E-04 0.108E-12
   0.254E+01 -.256E+01 0.121E+01   -.270E+01 0.272E+01 -.128E+01   0.153E+00 -.154E+00 0.616E-01   0.642E-03 -.645E-03 0.182E-03
   0.254E+01 0.256E+01 0.121E+01   -.270E+01 -.272E+01 -.128E+01   0.153E+00 0.154E+00 0.616E-01   0.642E-03 0.645E-03 0.182E-03
 -----------------------------------------------------------------------------------------------
   0.645E-11 -.318E-10 -.971E-10   0.977E-13 -.435E-13 0.118E-12   0.000E+00 -.278E-16 -.139E-16   -.117E-11 -.853E-12 0.214E-11
 
 
 POSITION                                       TOTAL-FORCE (eV/Angst)
 -----------------------------------------------------------------------------------
      0.00020      2.75018      1.94914        -0.000862     -0.000272      0.000000
      2.75000      5.49862      5.84743        -0.000862      0.000272      0.000000
      2.74960      0.00058      1.94914         0.000862     -0.000272      0.000000
      5.49939      2.74902      5.84743         0.000862      0.000272      0.000000
      2.74980      2.74960      3.89829         0.000000      0.000000      0.000000
      0.00000      0.00000      3.89829         0.000000      0.000000      0.000000
      2.74980      2.74960      0.00000         0.000000      0.000000      0.000000
      0.00000      0.00000      0.00000         0.000000      0.000000      0.000000
      4.10694      1.35707      3.90678        -0.002470     -0.002699     -0.000428
      1.39266      4.14213      0.00850         0.002470      0.002699     -0.000428
      4.14245      4.10667      3.90678         0.002470     -0.002699     -0.000428
      5.48757      5.49918      1.94914         0.000948     -0.000106      0.000000
      1.35714      1.39253      0.00850        -0.002470      0.002699     -0.000428
      4.14245      4.10667      7.78807         0.002470     -0.002699      0.000428
      2.73778      2.74962      5.84743         0.000948      0.000106      0.000000
      1.39266      4.14213      3.88979         0.002470      0.002699      0.000428
      0.01202      0.00002      5.84743        -0.000948      0.000106      0.000000
      2.76182      2.74958      1.94914        -0.000948     -0.000106      0.000000
      1.35714      1.39253      3.88979        -0.002470      0.002699      0.000428
      4.10694      1.35707      7.78807        -0.002470     -0.002699      0.000428
 -----------------------------------------------------------------------------------
    total drift:                                0.000000      0.000000      0.000000


--------------------------------------------------------------------------------------------------------



  FREE ENERGIE OF THE ION-ELECTRON SYSTEM (eV)
  ---------------------------------------------------
  free  energy   TOTEN  =      -125.89080941 eV

  energy  without entropy=     -125.89080941  energy(sigma->0) =     -125.89080941
 


--------------------------------------------------------------------------------------------------------


    POTLOK:  cpu time    0.2750: real time    0.2753


--------------------------------------------------------------------------------------------------------


 stress matrix after NEB project (eV)
      0.19881      0.00000      0.00000
      0.00000      0.19411      0.00000
      0.00000      0.00000      0.04104
  FORCES: max atom, RMS     0.003683    0.002402
  FORCE total and by dimension    0.010744    0.002699
  Stress total and by dimension    0.280870    0.198811
 Quasi-Newton relaxation of ions (Broydens 2nd method)
  g(Force)  = 0.557E-05   g(Stress)= 0.190E-03

 Reset! Starting new Quasi-Newton update for ions 


--------------------------------------------------------------------------------------------------------


  
 reached required accuracy - stopping structural energy minimisation
     LOOP+:  cpu time   97.4172: real time   97.7451
    4ORBIT:  cpu time    0.0000: real time    0.0000

 total amount of memory used by VASP on root node    45489. kBytes
========================================================================

   base      :      30000. kBytes
   nonlr-proj:       1393. kBytes
   fftplans  :        871. kBytes
   grid      :       2285. kBytes
   one-center:        155. kBytes
   wavefun   :      10785. kBytes
 
  
  
 General timing and accounting informations for this job:
 ========================================================
  
                  Total CPU time used (sec):      100.488
                            User time (sec):      100.072
                          System time (sec):        0.416
                         Elapsed time (sec):      100.980
  
                   Maximum memory used (kb):       51928.
                   Average memory used (kb):           0.
  
                          Minor page faults:         7904
                          Major page faults:            8
                 Voluntary context switches:         1546
