<?xml version="1.0" encoding="ISO-8859-1"?>
<modeling>
 <generator>
  <i name="program" type="string">vasp </i>
  <i name="version" type="string">5.4.1  </i>
  <i name="subversion" type="string">24Jun15 (build Jan 06 2016 13:10:00) complex                          parallel </i>
  <i name="platform" type="string">IFC91_ompi </i>
  <i name="date" type="string">2016 03 01 </i>
  <i name="time" type="string">14:27:02 </i>
 </generator>
 <incar>
  <i type="string" name="PREC">normal</i>
  <i type="string" name="ALGO"> Fast</i>
  <i type="int" name="ISPIN">     2</i>
  <i type="int" name="ICHARG">     1</i>
  <i type="int" name="NELM">   100</i>
  <i type="int" name="IBRION">     1</i>
  <i name="EDIFF">      0.00100000</i>
  <i name="EDIFFG">     -0.01000000</i>
  <i type="int" name="NSW">    99</i>
  <i type="int" name="ISIF">     3</i>
  <i name="ENCUT">    300.00000000</i>
  <i type="string" name="LREAL"> Auto</i>
  <i type="int" name="ISMEAR">    -5</i>
  <i name="SIGMA">      0.05000000</i>
  <i type="int" name="LMAXMIX">     4</i>
  <i type="logical" name="LWAVE"> F  </i>
  <v type="int" name="KPOINT_BSE">    -1     0     0     0</v>
  <i type="int" name="NELM">   100</i>
  <i type="logical" name="LDAU"> T  </i>
  <v type="int" name="LDAUTYPE">     2</v>
  <v type="int" name="LDAUL">     0     2     0</v>
  <v name="LDAUU">      0.00000000      5.30000000      0.00000000</v>
  <v name="LDAUJ">      0.00000000      0.00000000      0.00000000</v>
  <i type="int" name="LDAUPRINT">     1</i>
 </incar>
 <kpoints>
  <generation param="Monkhorst-Pack">
   <v type="int" name="divisions">       4        4        4 </v>
   <v name="usershift">      0.00000000       0.00000000       0.00000000 </v>
   <v name="genvec1">      0.25000000       0.00000000       0.00000000 </v>
   <v name="genvec2">      0.00000000       0.25000000       0.00000000 </v>
   <v name="genvec3">      0.00000000       0.00000000       0.25000000 </v>
   <v name="shift">      0.50000000       0.50000000       0.50000000 </v>
  </generation>
  <varray name="kpointlist" >
   <v>       0.12500000       0.12500000       0.12500000 </v>
   <v>       0.37500000       0.12500000       0.12500000 </v>
   <v>       0.12500000       0.37500000       0.12500000 </v>
   <v>       0.37500000       0.37500000       0.12500000 </v>
   <v>       0.12500000       0.12500000       0.37500000 </v>
   <v>       0.37500000       0.12500000       0.37500000 </v>
   <v>       0.12500000       0.37500000       0.37500000 </v>
   <v>       0.37500000       0.37500000       0.37500000 </v>
  </varray>
  <varray name="weights" >
   <v>       0.12500000 </v>
   <v>       0.12500000 </v>
   <v>       0.12500000 </v>
   <v>       0.12500000 </v>
   <v>       0.12500000 </v>
   <v>       0.12500000 </v>
   <v>       0.12500000 </v>
   <v>       0.12500000 </v>
  </varray>
  <varray name="tetrahedronlist"  type="int" >
   <v type="int" >        2        1        2        4        5 </v>
   <v type="int" >        2        1        3        4        5 </v>
   <v type="int" >        2        3        4        5        7 </v>
   <v type="int" >        2        2        4        5        6 </v>
   <v type="int" >        2        4        5        6        8 </v>
   <v type="int" >        2        4        5        7        8 </v>
   <v type="int" >        2        2        2        4        6 </v>
   <v type="int" >        2        2        4        4        6 </v>
   <v type="int" >        2        4        4        6        8 </v>
   <v type="int" >        2        2        4        6        6 </v>
   <v type="int" >        2        4        6        6        8 </v>
   <v type="int" >        2        4        6        8        8 </v>
   <v type="int" >        2        1        2        3        6 </v>
   <v type="int" >        2        2        3        4        6 </v>
   <v type="int" >        2        3        4        6        8 </v>
   <v type="int" >        2        1        3        5        6 </v>
   <v type="int" >        2        3        5        6        7 </v>
   <v type="int" >        2        3        6        7        8 </v>
   <v type="int" >        2        1        1        3        5 </v>
   <v type="int" >        2        1        3        3        5 </v>
   <v type="int" >        2        3        3        5        7 </v>
   <v type="int" >        2        1        3        5        5 </v>
   <v type="int" >        2        3        5        5        7 </v>
   <v type="int" >        2        3        5        7        7 </v>
   <v type="int" >        2        3        4        4        7 </v>
   <v type="int" >        2        3        3        4        7 </v>
   <v type="int" >        2        3        4        7        7 </v>
   <v type="int" >        2        4        4        7        8 </v>
   <v type="int" >        2        4        7        8        8 </v>
   <v type="int" >        2        4        7        7        8 </v>
   <v type="int" >        4        4        4        4        8 </v>
   <v type="int" >        4        4        4        8        8 </v>
   <v type="int" >        4        4        8        8        8 </v>
   <v type="int" >        2        3        3        4        8 </v>
   <v type="int" >        2        3        4        4        8 </v>
   <v type="int" >        2        3        4        8        8 </v>
   <v type="int" >        2        3        3        7        8 </v>
   <v type="int" >        2        3        7        7        8 </v>
   <v type="int" >        2        3        7        8        8 </v>
   <v type="int" >        4        3        3        3        7 </v>
   <v type="int" >        4        3        3        7        7 </v>
   <v type="int" >        4        3        7        7        7 </v>
   <v type="int" >        2        2        3        4        7 </v>
   <v type="int" >        2        1        2        3        7 </v>
   <v type="int" >        2        1        2        5        7 </v>
   <v type="int" >        2        2        4        7        8 </v>
   <v type="int" >        2        2        6        7        8 </v>
   <v type="int" >        2        2        5        6        7 </v>
   <v type="int" >        2        2        4        4        8 </v>
   <v type="int" >        2        2        2        4        8 </v>
   <v type="int" >        2        2        2        6        8 </v>
   <v type="int" >        2        2        4        8        8 </v>
   <v type="int" >        2        2        6        8        8 </v>
   <v type="int" >        2        2        6        6        8 </v>
   <v type="int" >        2        1        3        4        8 </v>
   <v type="int" >        2        1        2        4        8 </v>
   <v type="int" >        2        1        2        6        8 </v>
   <v type="int" >        2        1        3        7        8 </v>
   <v type="int" >        2        1        5        7        8 </v>
   <v type="int" >        2        1        5        6        8 </v>
   <v type="int" >        2        1        3        3        7 </v>
   <v type="int" >        2        1        1        3        7 </v>
   <v type="int" >        2        1        1        5        7 </v>
   <v type="int" >        2        1        3        7        7 </v>
   <v type="int" >        2        1        5        7        7 </v>
   <v type="int" >        2        1        5        5        7 </v>
   <v type="int" >        2        1        2        2        5 </v>
   <v type="int" >        2        1        1        2        5 </v>
   <v type="int" >        2        1        2        5        5 </v>
   <v type="int" >        2        2        2        5        6 </v>
   <v type="int" >        2        2        5        6        6 </v>
   <v type="int" >        2        2        5        5        6 </v>
   <v type="int" >        4        2        2        2        6 </v>
   <v type="int" >        4        2        2        6        6 </v>
   <v type="int" >        4        2        6        6        6 </v>
   <v type="int" >        2        1        1        2        6 </v>
   <v type="int" >        2        1        2        2        6 </v>
   <v type="int" >        2        1        2        6        6 </v>
   <v type="int" >        2        1        1        5        6 </v>
   <v type="int" >        2        1        5        5        6 </v>
   <v type="int" >        2        1        5        6        6 </v>
   <v type="int" >        4        1        1        1        5 </v>
   <v type="int" >        4        1        1        5        5 </v>
   <v type="int" >        4        1        5        5        5 </v>
   <v type="int" >        2        5        5        6        8 </v>
   <v type="int" >        2        5        5        7        8 </v>
   <v type="int" >        2        5        7        7        8 </v>
   <v type="int" >        2        5        6        6        8 </v>
   <v type="int" >        2        5        6        8        8 </v>
   <v type="int" >        2        5        7        8        8 </v>
   <v type="int" >        4        6        6        6        8 </v>
   <v type="int" >        4        6        6        8        8 </v>
   <v type="int" >        4        6        8        8        8 </v>
   <v type="int" >        2        5        6        6        7 </v>
   <v type="int" >        2        6        6        7        8 </v>
   <v type="int" >        2        6        7        8        8 </v>
   <v type="int" >        2        5        5        6        7 </v>
   <v type="int" >        2        5        6        7        7 </v>
   <v type="int" >        2        6        7        7        8 </v>
   <v type="int" >        4        5        5        5        7 </v>
   <v type="int" >        4        5        5        7        7 </v>
   <v type="int" >        4        5        7        7        7 </v>
   <v type="int" >        4        7        7        8        8 </v>
   <v type="int" >        4        7        7        7        8 </v>
   <v type="int" >        4        7        8        8        8 </v>
   <v type="int" >        6        8        8        8        8 </v>
   <v type="int" >        6        7        7        7        7 </v>
   <v type="int" >        4        5        5        6        6 </v>
   <v type="int" >        4        5        5        5        6 </v>
   <v type="int" >        4        5        6        6        6 </v>
   <v type="int" >        6        6        6        6        6 </v>
   <v type="int" >        6        5        5        5        5 </v>
   <v type="int" >        2        1        1        2        4 </v>
   <v type="int" >        2        1        1        3        4 </v>
   <v type="int" >        2        1        3        3        4 </v>
   <v type="int" >        2        1        2        2        4 </v>
   <v type="int" >        2        1        2        4        4 </v>
   <v type="int" >        2        1        3        4        4 </v>
   <v type="int" >        4        2        2        2        4 </v>
   <v type="int" >        4        2        2        4        4 </v>
   <v type="int" >        4        2        4        4        4 </v>
   <v type="int" >        2        1        2        2        3 </v>
   <v type="int" >        2        2        2        3        4 </v>
   <v type="int" >        2        2        3        4        4 </v>
   <v type="int" >        2        1        1        2        3 </v>
   <v type="int" >        2        1        2        3        3 </v>
   <v type="int" >        2        2        3        3        4 </v>
   <v type="int" >        4        1        1        1        3 </v>
   <v type="int" >        4        1        1        3        3 </v>
   <v type="int" >        4        1        3        3        3 </v>
   <v type="int" >        4        3        3        4        4 </v>
   <v type="int" >        4        3        3        3        4 </v>
   <v type="int" >        4        3        4        4        4 </v>
   <v type="int" >        6        4        4        4        4 </v>
   <v type="int" >        6        3        3        3        3 </v>
   <v type="int" >        4        1        1        2        2 </v>
   <v type="int" >        4        1        1        1        2 </v>
   <v type="int" >        4        1        2        2        2 </v>
   <v type="int" >        6        2        2        2        2 </v>
   <v type="int" >        6        1        1        1        1 </v>
  </varray>
  <i name="volumeweight">      0.00260417 </i>
 </kpoints>
 <parameters>
  <separator name="general" >
   <i type="string" name="SYSTEM">unknown system</i>
   <i type="logical" name="LCOMPAT"> F  </i>
  </separator>
  <separator name="electronic" >
   <i type="string" name="PREC">normal</i>
   <i name="ENMAX">    300.00000000</i>
   <i name="ENAUG">    578.34200000</i>
   <i name="EDIFF">      0.00100000</i>
   <i type="int" name="IALGO">    68</i>
   <i type="int" name="IWAVPR">    11</i>
   <i type="int" name="NBANDS">   110</i>
   <i name="NELECT">    168.00000000</i>
   <i type="int" name="TURBO">     0</i>
   <i type="int" name="IRESTART">     0</i>
   <i type="int" name="NREBOOT">     0</i>
   <i type="int" name="NMIN">     0</i>
   <i name="EREF">      0.00000000</i>
   <separator name="electronic smearing" >
    <i type="int" name="ISMEAR">    -5</i>
    <i name="SIGMA">      0.05000000</i>
    <i name="KSPACING">      0.50000000</i>
    <i type="logical" name="KGAMMA"> T  </i>
   </separator>
   <separator name="electronic projectors" >
    <i type="logical" name="LREAL"> T  </i>
    <v name="ROPT">     -0.00050000     -0.00050000     -0.00050000</v>
    <i type="int" name="LMAXPAW">  -100</i>
    <i type="int" name="LMAXMIX">     4</i>
    <i type="logical" name="NLSPLINE"> F  </i>
   </separator>
   <separator name="electronic startup" >
    <i type="int" name="ISTART">     0</i>
    <i type="int" name="ICHARG">     1</i>
    <i type="int" name="INIWAV">     1</i>
   </separator>
   <separator name="electronic spin" >
    <i type="int" name="ISPIN">     2</i>
    <i type="logical" name="LNONCOLLINEAR"> F  </i>
    <v name="MAGMOM">      1.00000000      1.00000000      1.00000000      1.00000000      1.00000000      1.00000000      1.00000000      1.00000000      1.00000000      1.00000000      1.00000000      1.00000000      1.00000000      1.00000000      1.00000000      1.00000000      1.00000000      1.00000000      1.00000000      1.00000000
</v>
    <i name="NUPDOWN">     -1.00000000</i>
    <i type="logical" name="LSORBIT"> F  </i>
    <v name="SAXIS">      0.00000000      0.00000000      1.00000000</v>
    <i type="logical" name="LSPIRAL"> F  </i>
    <v name="QSPIRAL">      0.00000000      0.00000000      0.00000000</v>
    <i type="logical" name="LZEROZ"> F  </i>
   </separator>
   <separator name="electronic exchange-correlation" >
    <i type="logical" name="LASPH"> F  </i>
    <i type="logical" name="LMETAGGA"> F  </i>
   </separator>
   <separator name="electronic convergence" >
    <i type="int" name="NELM">   100</i>
    <i type="int" name="NELMDL">    -5</i>
    <i type="int" name="NELMIN">     2</i>
    <i name="ENINI">    300.00000000</i>
    <separator name="electronic convergence detail" >
     <i type="logical" name="LDIAG"> T  </i>
     <i type="logical" name="LSUBROT"> F  </i>
     <i name="WEIMIN">      0.00100000</i>
     <i name="EBREAK">      0.00000227</i>
     <i name="DEPER">      0.30000000</i>
     <i type="int" name="NRMM">     4</i>
     <i name="TIME">      0.40000000</i>
    </separator>
   </separator>
   <separator name="electronic mixer" >
    <i name="AMIX">      0.40000000</i>
    <i name="BMIX">      1.00000000</i>
    <i name="AMIN">      0.10000000</i>
    <i name="AMIX_MAG">      1.60000000</i>
    <i name="BMIX_MAG">      1.00000000</i>
    <separator name="electronic mixer details" >
     <i type="int" name="IMIX">     4</i>
     <i type="logical" name="MIXFIRST"> F  </i>
     <i type="int" name="MAXMIX">   -45</i>
     <i name="WC">    100.00000000</i>
     <i type="int" name="INIMIX">     1</i>
     <i type="int" name="MIXPRE">     1</i>
     <i type="int" name="MREMOVE">     5</i>
    </separator>
   </separator>
   <separator name="electronic dipolcorrection" >
    <i type="logical" name="LDIPOL"> F  </i>
    <i type="logical" name="LMONO"> F  </i>
    <i type="int" name="IDIPOL">     0</i>
    <i name="EPSILON">      1.00000000</i>
    <v name="DIPOL">   -100.00000000   -100.00000000   -100.00000000</v>
    <i name="EFIELD">      0.00000000</i>
   </separator>
  </separator>
  <separator name="grids" >
   <i type="int" name="NGX">    24</i>
   <i type="int" name="NGY">    24</i>
   <i type="int" name="NGZ">    36</i>
   <i type="int" name="NGXF">    48</i>
   <i type="int" name="NGYF">    48</i>
   <i type="int" name="NGZF">    72</i>
   <i type="logical" name="ADDGRID"> F  </i>
  </separator>
  <separator name="ionic" >
   <i type="int" name="NSW">    99</i>
   <i type="int" name="IBRION">     1</i>
   <i type="int" name="ISIF">     3</i>
   <i name="PSTRESS">      0.00000000</i>
   <i name="EDIFFG">     -0.01000000</i>
   <i type="int" name="NFREE">     0</i>
   <i name="POTIM">      0.50000000</i>
   <i name="SMASS">     -3.00000000</i>
   <i name="SCALEE">      1.00000000</i>
  </separator>
  <separator name="ionic md" >
   <i name="TEBEG">      0.00010000</i>
   <i name="TEEND">      0.00010000</i>
   <i type="int" name="NBLOCK">     1</i>
   <i type="int" name="KBLOCK">    99</i>
   <i type="int" name="NPACO">   256</i>
   <i name="APACO">     16.00000000</i>
  </separator>
  <separator name="symmetry" >
   <i type="int" name="ISYM">     2</i>
   <i name="SYMPREC">      0.00001000</i>
  </separator>
  <separator name="dos" >
   <i type="logical" name="LORBIT"> F  </i>
   <v name="RWIGS">     -1.00000000     -1.00000000     -1.00000000</v>
   <i type="int" name="NEDOS">   301</i>
   <i name="EMIN">     10.00000000</i>
   <i name="EMAX">    -10.00000000</i>
   <i name="EFERMI">      0.00000000</i>
  </separator>
  <separator name="writing" >
   <i type="int" name="NWRITE">     2</i>
   <i type="logical" name="LWAVE"> F  </i>
   <i type="logical" name="LCHARG"> T  </i>
   <i type="logical" name="LPARD"> F  </i>
   <i type="logical" name="LVTOT"> F  </i>
   <i type="logical" name="LVHAR"> F  </i>
   <i type="logical" name="LELF"> F  </i>
   <i type="logical" name="LOPTICS"> F  </i>
   <v name="STM">      0.00000000      0.00000000      0.00000000      0.00000000      0.00000000      0.00000000      0.00000000</v>
  </separator>
  <separator name="performance" >
   <i type="int" name="NPAR">     2</i>
   <i type="int" name="NSIM">     4</i>
   <i type="int" name="NBLK">    -1</i>
   <i type="logical" name="LPLANE"> T  </i>
   <i type="logical" name="LSCALAPACK"> T  </i>
   <i type="logical" name="LSCAAWARE"> F  </i>
   <i type="logical" name="LSCALU"> F  </i>
   <i type="logical" name="LASYNC"> F  </i>
   <i type="logical" name="LORBITALREAL"> F  </i>
  </separator>
  <separator name="miscellaneous" >
   <i type="int" name="IDIOT">     3</i>
   <i type="logical" name="LMUSIC"> F  </i>
   <v name="POMASS">     87.62000000     55.84700000     16.00000000</v>
   <v name="DARWINR">      0.00000000      0.00000000      0.00000000</v>
   <v name="DARWINV">      1.00000000      1.00000000      1.00000000</v>
   <i type="logical" name="LCORR"> T  </i>
  </separator>
  <i type="logical" name="GGA_COMPAT"> T  </i>
  <i type="logical" name="LBERRY"> F  </i>
  <i type="int" name="ICORELEVEL">     0</i>
  <i type="logical" name="LDAU"> T  </i>
  <v type="int" name="LDAUTYPE">     2</v>
  <v type="int" name="LDAUL">     0</v>
  <v name="LDAUU">      0.00000000</v>
  <v name="LDAUJ">      0.00000000</v>
  <i type="int" name="LDAUPRINT">     1</i>
  <i type="int" name="I_CONSTRAINED_M">     0</i>
  <separator name="electronic exchange-correlation" >
   <i type="string" name="GGA">--</i>
   <i type="int" name="VOSKOWN">     0</i>
   <i type="logical" name="LHFCALC"> F  </i>
   <i type="string" name="PRECFOCK"></i>
   <i type="logical" name="LSYMGRAD"> F  </i>
   <i type="logical" name="LHFONE"> F  </i>
   <i type="logical" name="LRHFCALC"> F  </i>
   <i type="logical" name="LTHOMAS"> F  </i>
   <i type="logical" name="LMODELHF"> F  </i>
   <i name="ENCUT4O">     -1.00000000</i>
   <i type="int" name="EXXOEP">     0</i>
   <i type="int" name="FOURORBIT">     0</i>
   <i name="AEXX">      0.00000000</i>
   <i name="HFALPHA">      0.00000000</i>
   <i name="MCALPHA">      0.00000000</i>
   <i name="ALDAX">      1.00000000</i>
   <i name="AGGAX">      1.00000000</i>
   <i name="ALDAC">      1.00000000</i>
   <i name="AGGAC">      1.00000000</i>
   <i type="int" name="NKREDX">     1</i>
   <i type="int" name="NKREDY">     1</i>
   <i type="int" name="NKREDZ">     1</i>
   <i type="logical" name="SHIFTRED"> F  </i>
   <i type="logical" name="ODDONLY"> F  </i>
   <i type="logical" name="EVENONLY"> F  </i>
   <i type="int" name="LMAXFOCK">     0</i>
   <i type="int" name="NMAXFOCKAE">     0</i>
   <i type="logical" name="LFOCKAEDFT"> F  </i>
   <i name="HFSCREEN">      0.00000000</i>
   <i name="HFSCREENC">      0.00000000</i>
   <i type="int" name="NBANDSGWLOW">     0</i>
  </separator>
  <separator name="vdW DFT" >
   <i type="logical" name="LUSE_VDW"> F  </i>
   <i name="Zab_VDW">     -0.84910000</i>
   <i name="PARAM1">      0.12340000</i>
   <i name="PARAM2">      1.00000000</i>
   <i name="PARAM3">      0.00000000</i>
  </separator>
  <separator name="model GW" >
   <i type="int" name="MODEL_GW">     0</i>
   <i name="MODEL_EPS0">      7.07383828</i>
   <i name="MODEL_ALPHA">      1.00000000</i>
  </separator>
  <separator name="linear response parameters" >
   <i type="logical" name="LEPSILON"> F  </i>
   <i type="logical" name="LRPA"> F  </i>
   <i type="logical" name="LNABLA"> F  </i>
   <i type="logical" name="LVEL"> F  </i>
   <i type="int" name="KINTER">     0</i>
   <i name="CSHIFT">      0.10000000</i>
   <i name="OMEGAMAX">     -1.00000000</i>
   <i name="DEG_THRESHOLD">      0.00200000</i>
  </separator>
  <separator name="orbital magnetization" >
   <i type="logical" name="NUCIND"> F  </i>
   <v name="MAGPOS">      0.00000000      0.00000000      0.00000000</v>
   <i type="logical" name="LNICSALL"> T  </i>
   <i type="logical" name="ORBITALMAG"> F  </i>
   <i type="logical" name="LMAGBLOCH"> F  </i>
   <i type="logical" name="LCHIMAG"> F  </i>
   <i type="logical" name="LGAUGE"> T  </i>
   <i type="int" name="MAGATOM">     0</i>
   <v name="MAGDIPOL">      0.00000000      0.00000000      0.00000000</v>
   <v name="AVECCONST">      0.00000000      0.00000000      0.00000000</v>
  </separator>
  <separator name="response functions" >
   <i type="logical" name="LADDER"> F  </i>
   <i type="logical" name="LFXC"> F  </i>
   <i type="logical" name="LHARTREE"> T  </i>
   <i type="int" name="IBSE">     0</i>
   <v type="int" name="KPOINT">    -1     0     0     0</v>
   <i type="logical" name="LTCTE"> F  </i>
   <i type="logical" name="LTETE"> F  </i>
   <i type="logical" name="LTRIPLET"> F  </i>
   <i type="logical" name="LFXCEPS"> F  </i>
   <i type="logical" name="LFXHEG"> F  </i>
   <i type="int" name="NATURALO">     0</i>
   <i type="logical" name="L2ORDER"> F  </i>
   <i type="logical" name="LUSEW"> F  </i>
   <i name="ENCUTGW">     -2.00000000</i>
   <i name="ENCUTGWSOFT">     -2.00000000</i>
   <i name="ENCUTLF">     -1.00000000</i>
   <i type="int" name="LMAXMP2">    -1</i>
   <i name="SCISSOR">      0.00000000</i>
   <i type="int" name="NOMEGA">     0</i>
   <i type="int" name="NOMEGAR">     0</i>
   <i type="int" name="NBANDSGW">    -1</i>
   <i type="int" name="NBANDSO">    -1</i>
   <i type="int" name="NBANDSV">    -1</i>
   <i type="int" name="NELM">   100</i>
   <i type="int" name="NELMHF">     1</i>
   <i type="int" name="DIM">     3</i>
   <i type="int" name="ANTIRES">     0</i>
   <i name="OMEGAMAX">    -30.00000000</i>
   <i name="OMEGAMIN">    -30.00000000</i>
   <i name="OMEGATL">   -200.00000000</i>
   <i type="int" name="OMEGAGRID">     0</i>
   <i name="CSHIFT">     -0.10000000</i>
   <i type="logical" name="SELFENERGY"> F  </i>
   <i type="logical" name="LSPECTRAL"> F  </i>
   <i type="logical" name="LSPECTRALGW"> F  </i>
   <i type="logical" name="LSINGLES"> F  </i>
   <i type="logical" name="LFERMIGW"> F  </i>
   <i type="logical" name="ODDONLYGW"> F  </i>
   <i type="logical" name="EVENONLYGW"> F  </i>
   <i type="int" name="NKREDLFX">     1</i>
   <i type="int" name="NKREDLFY">     1</i>
   <i type="int" name="NKREDLFZ">     1</i>
   <i type="int" name="MAXMEM">  1800</i>
   <i type="int" name="TELESCOPE">     0</i>
   <i type="int" name="TAUPAR">     1</i>
   <i type="int" name="OMEGAPAR">    -1</i>
   <i name="LAMBDA">      1.00000000</i>
  </separator>
  <separator name="External order field" >
   <i name="OFIELD_KAPPA">      0.00000000</i>
   <v name="OFIELD_K">      0.00000000      0.00000000      0.00000000</v>
   <i name="OFIELD_Q6_NEAR">      0.00000000</i>
   <i name="OFIELD_Q6_FAR">      0.00000000</i>
   <i name="OFIELD_A">      0.00000000</i>
  </separator>
  <separator name="solvation model" >
   <i type="logical" name="LSOL"> F  </i>
  </separator>
 </parameters>
 <atominfo>
  <atoms>      20 </atoms>
  <types>       3 </types>
  <array name="atoms" >
   <dimension dim="1">ion</dimension>
   <field type="string">element</field>
   <field type="int">atomtype</field>
   <set>
    <rc><c>Sr</c><c>   1</c></rc>
    <rc><c>Sr</c><c>   1</c></rc>
    <rc><c>Sr</c><c>   1</c></rc>
    <rc><c>Sr</c><c>   1</c></rc>
    <rc><c>Fe</c><c>   2</c></rc>
    <rc><c>Fe</c><c>   2</c></rc>
    <rc><c>Fe</c><c>   2</c></rc>
    <rc><c>Fe</c><c>   2</c></rc>
    <rc><c>O </c><c>   3</c></rc>
    <rc><c>O </c><c>   3</c></rc>
    <rc><c>O </c><c>   3</c></rc>
    <rc><c>O </c><c>   3</c></rc>
    <rc><c>O </c><c>   3</c></rc>
    <rc><c>O </c><c>   3</c></rc>
    <rc><c>O </c><c>   3</c></rc>
    <rc><c>O </c><c>   3</c></rc>
    <rc><c>O </c><c>   3</c></rc>
    <rc><c>O </c><c>   3</c></rc>
    <rc><c>O </c><c>   3</c></rc>
    <rc><c>O </c><c>   3</c></rc>
   </set>
  </array>
  <array name="atomtypes" >
   <dimension dim="1">type</dimension>
   <field type="int">atomspertype</field>
   <field type="string">element</field>
   <field>mass</field>
   <field>valence</field>
   <field type="string">pseudopotential</field>
   <set>
    <rc><c>   4</c><c>Sr</c><c>     87.62000000</c><c>     10.00000000</c><c>  PAW Sr                                </c></rc>
    <rc><c>   4</c><c>Fe</c><c>     55.84700000</c><c>     14.00000000</c><c>  PAW Fe                                </c></rc>
    <rc><c>  12</c><c>O </c><c>     16.00000000</c><c>      6.00000000</c><c>  PAW O_s                               </c></rc>
   </set>
  </array>
 </atominfo>
 <structure name="initialpos" >
  <crystal>
   <varray name="basis" >
    <v>       5.49959355       0.00000000       0.00000000 </v>
    <v>       0.00000000       5.49920043       0.00000000 </v>
    <v>       0.00000000       0.00000000       7.79657264 </v>
   </varray>
   <i name="volume">    235.79460920 </i>
   <varray name="rec_basis" >
    <v>       0.18183162       0.00000000       0.00000000 </v>
    <v>       0.00000000       0.18184462       0.00000000 </v>
    <v>       0.00000000       0.00000000       0.12826149 </v>
   </varray>
  </crystal>
  <varray name="positions" >
   <v>       0.00003629       0.50010625       0.25000000 </v>
   <v>       0.50003629       0.99989375       0.75000000 </v>
   <v>       0.49996371       0.00010625       0.25000000 </v>
   <v>       0.99996371       0.49989375       0.75000000 </v>
   <v>       0.50000000       0.50000000       0.50000000 </v>
   <v>       0.00000000       0.00000000       0.50000000 </v>
   <v>       0.50000000       0.50000000       0.00000000 </v>
   <v>       0.00000000       0.00000000       0.00000000 </v>
   <v>       0.74677095       0.24677578       0.50108997 </v>
   <v>       0.25322905       0.75322422       0.00108997 </v>
   <v>       0.75322905       0.74677578       0.50108997 </v>
   <v>       0.99781447       0.99999676       0.25000000 </v>
   <v>       0.24677095       0.25322422       0.00108997 </v>
   <v>       0.75322905       0.74677578       0.99891003 </v>
   <v>       0.49781447       0.50000324       0.75000000 </v>
   <v>       0.25322905       0.75322422       0.49891003 </v>
   <v>       0.00218553       0.00000324       0.75000000 </v>
   <v>       0.50218553       0.49999676       0.25000000 </v>
   <v>       0.24677095       0.25322422       0.49891003 </v>
   <v>       0.74677095       0.24677578       0.99891003 </v>
  </varray>
 </structure>
 <calculation>
  <scstep>
   <time name="dav">    6.65    6.66</time>
   <time name="total">    6.99    7.00</time>
   <energy>
    <i name="alphaZ">   1166.31124243 </i>
    <i name="ewald"> -12985.07106125 </i>
    <i name="hartreedc">  -5152.26573188 </i>
    <i name="XCdc">    761.56336761 </i>
    <i name="pawpsdc">  12967.27660945 </i>
    <i name="pawaedc"> -13271.26785113 </i>
    <i name="eentropy">      0.00000000 </i>
    <i name="bandstr">   -236.32167406 </i>
    <i name="atom">  18407.79351682 </i>
    <i name="e_fr_energy">   1658.01841798 </i>
    <i name="e_wo_entrp">   1658.01841798 </i>
    <i name="e_0_energy">   1658.01841798 </i>
   </energy>
  </scstep>
  <scstep>
   <time name="dav">    6.32    6.33</time>
   <time name="total">    6.39    6.40</time>
   <energy>
    <i name="e_fr_energy">     12.34379257 </i>
    <i name="e_wo_entrp">     12.34379257 </i>
    <i name="e_0_energy">     12.34379257 </i>
   </energy>
  </scstep>
  <scstep>
   <time name="dav">    7.08    7.13</time>
   <time name="total">    7.15    7.19</time>
   <energy>
    <i name="e_fr_energy">   -143.90473125 </i>
    <i name="e_wo_entrp">   -143.90473125 </i>
    <i name="e_0_energy">   -143.90473125 </i>
   </energy>
  </scstep>
  <scstep>
   <time name="dav">    8.59    8.61</time>
   <time name="total">    8.68    8.70</time>
   <energy>
    <i name="e_fr_energy">   -150.30379109 </i>
    <i name="e_wo_entrp">   -150.30379109 </i>
    <i name="e_0_energy">   -150.30379109 </i>
   </energy>
  </scstep>
  <scstep>
   <time name="dav">   10.36   10.38</time>
   <time name="total">   10.61   10.64</time>
   <energy>
    <i name="e_fr_energy">   -150.77767840 </i>
    <i name="e_wo_entrp">   -150.77767840 </i>
    <i name="e_0_energy">   -150.77767840 </i>
   </energy>
  </scstep>
  <scstep>
   <time name="diag">    0.90    0.90</time>
   <time name="diis">    3.22    3.22</time>
   <time name="orth">    0.21    0.21</time>
   <time name="total">    4.87    4.88</time>
   <energy>
    <i name="e_fr_energy">   -171.83668044 </i>
    <i name="e_wo_entrp">   -171.83668044 </i>
    <i name="e_0_energy">   -171.83668044 </i>
   </energy>
  </scstep>
  <scstep>
   <time name="diag">    0.89    0.90</time>
   <time name="diis">    3.00    3.01</time>
   <time name="orth">    0.21    0.21</time>
   <time name="total">    4.65    4.67</time>
   <energy>
    <i name="e_fr_energy">   -128.16953360 </i>
    <i name="e_wo_entrp">   -128.16953360 </i>
    <i name="e_0_energy">   -128.16953360 </i>
   </energy>
  </scstep>
  <scstep>
   <time name="diag">    0.90    0.90</time>
   <time name="diis">    3.03    3.04</time>
   <time name="orth">    0.21    0.21</time>
   <time name="total">    4.69    4.70</time>
   <energy>
    <i name="e_fr_energy">   -128.77176233 </i>
    <i name="e_wo_entrp">   -128.77176233 </i>
    <i name="e_0_energy">   -128.77176233 </i>
   </energy>
  </scstep>
  <scstep>
   <time name="diag">    0.90    0.90</time>
   <time name="diis">    2.90    2.91</time>
   <time name="orth">    0.21    0.21</time>
   <time name="total">    4.53    4.54</time>
   <energy>
    <i name="e_fr_energy">   -126.51475329 </i>
    <i name="e_wo_entrp">   -126.51475329 </i>
    <i name="e_0_energy">   -126.51475329 </i>
   </energy>
  </scstep>
  <scstep>
   <time name="diag">    0.90    0.90</time>
   <time name="diis">    3.02    3.02</time>
   <time name="orth">    0.21    0.21</time>
   <time name="total">    4.65    4.66</time>
   <energy>
    <i name="e_fr_energy">   -125.93129893 </i>
    <i name="e_wo_entrp">   -125.93129893 </i>
    <i name="e_0_energy">   -125.93129893 </i>
   </energy>
  </scstep>
  <scstep>
   <time name="diag">    0.90    0.90</time>
   <time name="diis">    2.89    2.90</time>
   <time name="orth">    0.21    0.21</time>
   <time name="total">    4.53    4.54</time>
   <energy>
    <i name="e_fr_energy">   -125.87770094 </i>
    <i name="e_wo_entrp">   -125.87770094 </i>
    <i name="e_0_energy">   -125.87770094 </i>
   </energy>
  </scstep>
  <scstep>
   <time name="diag">    0.90    0.90</time>
   <time name="diis">    3.10    3.11</time>
   <time name="orth">    0.21    0.21</time>
   <time name="total">    4.74    4.75</time>
   <energy>
    <i name="e_fr_energy">   -125.90288994 </i>
    <i name="e_wo_entrp">   -125.90288994 </i>
    <i name="e_0_energy">   -125.90288994 </i>
   </energy>
  </scstep>
  <scstep>
   <time name="diag">    0.90    0.90</time>
   <time name="diis">    2.90    2.92</time>
   <time name="orth">    0.21    0.21</time>
   <time name="total">    4.54    4.57</time>
   <energy>
    <i name="e_fr_energy">   -125.89217960 </i>
    <i name="e_wo_entrp">   -125.89217960 </i>
    <i name="e_0_energy">   -125.89217960 </i>
   </energy>
  </scstep>
  <scstep>
   <time name="diag">    0.90    0.90</time>
   <time name="diis">    2.62    2.63</time>
   <time name="orth">    0.21    0.21</time>
   <time name="total">    4.25    4.27</time>
   <energy>
    <i name="e_fr_energy">   -125.89049383 </i>
    <i name="e_wo_entrp">   -125.89049383 </i>
    <i name="e_0_energy">   -125.89049383 </i>
   </energy>
  </scstep>
  <scstep>
   <time name="diag">    0.90    0.90</time>
   <time name="diis">    1.96    1.97</time>
   <time name="orth">    0.21    0.21</time>
   <time name="total">    3.62    3.63</time>
   <energy>
    <i name="e_fr_energy">   -125.88740625 </i>
    <i name="e_wo_entrp">   -125.88740625 </i>
    <i name="e_0_energy">   -125.88740625 </i>
   </energy>
  </scstep>
  <scstep>
   <time name="diag">    0.90    0.90</time>
   <time name="diis">    1.87    1.88</time>
   <time name="orth">    0.21    0.21</time>
   <time name="total">    3.51    3.52</time>
   <energy>
    <i name="e_fr_energy">   -125.89073369 </i>
    <i name="e_wo_entrp">   -125.89073369 </i>
    <i name="e_0_energy">   -125.89073369 </i>
   </energy>
  </scstep>
  <scstep>
   <time name="diag">    0.90    0.90</time>
   <time name="diis">    1.79    1.79</time>
   <time name="orth">    0.21    0.21</time>
   <time name="total">    3.24    3.25</time>
   <energy>
    <i name="alphaZ">   1166.31124243 </i>
    <i name="ewald"> -12985.07106125 </i>
    <i name="hartreedc">  -4949.12967940 </i>
    <i name="XCdc">    766.27952951 </i>
    <i name="pawpsdc">  13851.70269902 </i>
    <i name="pawaedc"> -14201.16784922 </i>
    <i name="eentropy">      0.00000000 </i>
    <i name="bandstr">  -2182.60920731 </i>
    <i name="atom">  18407.79351682 </i>
    <i name="e_fr_energy">   -125.89080941 </i>
    <i name="e_wo_entrp">   -125.89080941 </i>
    <i name="e_0_energy">   -125.89080941 </i>
   </energy>
  </scstep>
  <structure>
   <crystal>
    <varray name="basis" >
     <v>       5.49959355       0.00000000       0.00000000 </v>
     <v>       0.00000000       5.49920043       0.00000000 </v>
     <v>       0.00000000       0.00000000       7.79657264 </v>
    </varray>
    <i name="volume">    235.79460920 </i>
    <varray name="rec_basis" >
     <v>       0.18183162       0.00000000       0.00000000 </v>
     <v>       0.00000000       0.18184462       0.00000000 </v>
     <v>       0.00000000       0.00000000       0.12826149 </v>
    </varray>
   </crystal>
   <varray name="positions" >
    <v>       0.00003629       0.50010625       0.25000000 </v>
    <v>       0.50003629       0.99989375       0.75000000 </v>
    <v>       0.49996371       0.00010625       0.25000000 </v>
    <v>       0.99996371       0.49989375       0.75000000 </v>
    <v>       0.50000000       0.50000000       0.50000000 </v>
    <v>       0.00000000       0.00000000       0.50000000 </v>
    <v>       0.50000000       0.50000000       0.00000000 </v>
    <v>       0.00000000       0.00000000       0.00000000 </v>
    <v>       0.74677095       0.24677578       0.50108997 </v>
    <v>       0.25322905       0.75322422       0.00108997 </v>
    <v>       0.75322905       0.74677578       0.50108997 </v>
    <v>       0.99781447       0.99999676       0.25000000 </v>
    <v>       0.24677095       0.25322422       0.00108997 </v>
    <v>       0.75322905       0.74677578       0.99891003 </v>
    <v>       0.49781447       0.50000324       0.75000000 </v>
    <v>       0.25322905       0.75322422       0.49891003 </v>
    <v>       0.00218553       0.00000324       0.75000000 </v>
    <v>       0.50218553       0.49999676       0.25000000 </v>
    <v>       0.24677095       0.25322422       0.49891003 </v>
    <v>       0.74677095       0.24677578       0.99891003 </v>
   </varray>
  </structure>
  <varray name="forces" >
   <v>      -0.00086168      -0.00027160       0.00000000 </v>
   <v>      -0.00086168       0.00027160       0.00000000 </v>
   <v>       0.00086168      -0.00027160       0.00000000 </v>
   <v>       0.00086168       0.00027160       0.00000000 </v>
   <v>       0.00000000       0.00000000       0.00000000 </v>
   <v>       0.00000000       0.00000000       0.00000000 </v>
   <v>       0.00000000       0.00000000       0.00000000 </v>
   <v>       0.00000000       0.00000000       0.00000000 </v>
   <v>      -0.00246964      -0.00269907      -0.00042763 </v>
   <v>       0.00246964       0.00269907      -0.00042763 </v>
   <v>       0.00246964      -0.00269907      -0.00042763 </v>
   <v>       0.00094781      -0.00010602       0.00000000 </v>
   <v>      -0.00246964       0.00269907      -0.00042763 </v>
   <v>       0.00246964      -0.00269907       0.00042763 </v>
   <v>       0.00094781       0.00010602       0.00000000 </v>
   <v>       0.00246964       0.00269907       0.00042763 </v>
   <v>      -0.00094781       0.00010602       0.00000000 </v>
   <v>      -0.00094781      -0.00010602       0.00000000 </v>
   <v>      -0.00246964       0.00269907       0.00042763 </v>
   <v>      -0.00246964      -0.00269907       0.00042763 </v>
  </varray>
  <varray name="stress" >
   <v>       1.35088241       0.00000000       0.00000000 </v>
   <v>       0.00000000       1.31892571       0.00000000 </v>
   <v>       0.00000000       0.00000000       0.27886147 </v>
  </varray>
  <energy>
   <i name="e_fr_energy">   -125.89080941 </i>
   <i name="e_wo_entrp">   -125.89080941 </i>
   <i name="e_0_energy">      0.00000000 </i>
  </energy>
  <time name="totalsc">   97.42   97.75</time>
  <eigenvalues>
   <array>
    <dimension dim="1">band</dimension>
    <dimension dim="2">kpoint</dimension>
    <dimension dim="3">spin</dimension>
    <field>eigene</field>
    <field>occ</field>
    <set>
     <set comment="spin 1">
      <set comment="kpoint 1">
       <r>  -54.4335    1.0000 </r>
       <r>  -54.4335    1.0000 </r>
       <r>  -54.4333    1.0000 </r>
       <r>  -54.4333    1.0000 </r>
       <r>  -54.4323    1.0000 </r>
       <r>  -54.4322    1.0000 </r>
       <r>  -54.4320    1.0000 </r>
       <r>  -54.4319    1.0000 </r>
       <r>  -54.4186    1.0000 </r>
       <r>  -54.4184    1.0000 </r>
       <r>  -54.4173    1.0000 </r>
       <r>  -54.4170    1.0000 </r>
       <r>  -29.8420    1.0000 </r>
       <r>  -29.8195    1.0000 </r>
       <r>  -29.8019    1.0000 </r>
       <r>  -29.7840    1.0000 </r>
       <r>  -15.2867    1.0000 </r>
       <r>  -15.2819    1.0000 </r>
       <r>  -14.7441    1.0000 </r>
       <r>  -14.3334    1.0000 </r>
       <r>  -14.1710    1.0000 </r>
       <r>  -14.1671    1.0000 </r>
       <r>  -14.1062    1.0000 </r>
       <r>  -14.0897    1.0000 </r>
       <r>  -14.0876    1.0000 </r>
       <r>  -14.0480    1.0000 </r>
       <r>  -14.0248    1.0000 </r>
       <r>  -14.0151    1.0000 </r>
       <r>  -12.1383    1.0000 </r>
       <r>  -12.0633    1.0000 </r>
       <r>  -12.0359    1.0000 </r>
       <r>  -11.8961    1.0000 </r>
       <r>  -11.8850    1.0000 </r>
       <r>  -11.8432    1.0000 </r>
       <r>  -11.8223    1.0000 </r>
       <r>  -11.8109    1.0000 </r>
       <r>  -11.8109    1.0000 </r>
       <r>  -11.6409    1.0000 </r>
       <r>  -11.6020    1.0000 </r>
       <r>  -11.4575    1.0000 </r>
       <r>   -5.3519    1.0000 </r>
       <r>   -5.2752    1.0000 </r>
       <r>   -5.2030    1.0000 </r>
       <r>   -5.1004    1.0000 </r>
       <r>   -4.8070    1.0000 </r>
       <r>   -4.6819    1.0000 </r>
       <r>   -4.6604    1.0000 </r>
       <r>   -4.6190    1.0000 </r>
       <r>   -4.5964    1.0000 </r>
       <r>   -4.4354    1.0000 </r>
       <r>   -4.4246    1.0000 </r>
       <r>   -4.4024    1.0000 </r>
       <r>   -4.3561    1.0000 </r>
       <r>   -4.1632    1.0000 </r>
       <r>   -4.1582    1.0000 </r>
       <r>   -4.1578    1.0000 </r>
       <r>   -4.1139    1.0000 </r>
       <r>   -3.6364    1.0000 </r>
       <r>   -3.1928    1.0000 </r>
       <r>   -3.0348    1.0000 </r>
       <r>   -2.6415    1.0000 </r>
       <r>   -1.2900    1.0000 </r>
       <r>   -1.2177    1.0000 </r>
       <r>   -1.1472    1.0000 </r>
       <r>   -1.1353    1.0000 </r>
       <r>   -0.8673    1.0000 </r>
       <r>   -0.6271    1.0000 </r>
       <r>    0.0325    1.0000 </r>
       <r>    0.0878    1.0000 </r>
       <r>    0.3237    1.0000 </r>
       <r>    0.6240    1.0000 </r>
       <r>    0.6606    1.0000 </r>
       <r>    0.7595    1.0000 </r>
       <r>    0.7616    1.0000 </r>
       <r>    0.8617    1.0000 </r>
       <r>    0.9176    1.0000 </r>
       <r>    1.2312    1.0000 </r>
       <r>    1.2378    1.0000 </r>
       <r>    1.2819    1.0000 </r>
       <r>    1.3629    1.0000 </r>
       <r>    1.3927    1.0000 </r>
       <r>    1.4081    1.0000 </r>
       <r>    1.4515    1.0000 </r>
       <r>    1.6170    1.0000 </r>
       <r>    1.6951    1.0000 </r>
       <r>    1.7873    1.0000 </r>
       <r>    2.0057    1.0000 </r>
       <r>    2.1260    1.0000 </r>
       <r>    2.2969    1.0000 </r>
       <r>    2.3428    1.0000 </r>
       <r>    2.3503    1.0000 </r>
       <r>    2.4251    1.0063 </r>
       <r>    2.4916    0.7207 </r>
       <r>    3.7742   -0.0059 </r>
       <r>    3.9414    0.0000 </r>
       <r>    4.1006    0.0000 </r>
       <r>    8.5606    0.0000 </r>
       <r>    8.6014    0.0000 </r>
       <r>    9.2832    0.0000 </r>
       <r>    9.8921    0.0000 </r>
       <r>   10.0115    0.0000 </r>
       <r>   10.0127    0.0000 </r>
       <r>   10.1157    0.0000 </r>
       <r>   10.4189    0.0000 </r>
       <r>   10.8144    0.0000 </r>
       <r>   10.8588    0.0000 </r>
       <r>   10.9146    0.0000 </r>
       <r>   10.9289    0.0000 </r>
       <r>   11.1186    0.0000 </r>
       <r>   11.7550    0.0000 </r>
      </set>
      <set comment="kpoint 2">
       <r>  -54.4333    1.0000 </r>
       <r>  -54.4333    1.0000 </r>
       <r>  -54.4328    1.0000 </r>
       <r>  -54.4327    1.0000 </r>
       <r>  -54.4327    1.0000 </r>
       <r>  -54.4326    1.0000 </r>
       <r>  -54.4322    1.0000 </r>
       <r>  -54.4321    1.0000 </r>
       <r>  -54.4184    1.0000 </r>
       <r>  -54.4183    1.0000 </r>
       <r>  -54.4171    1.0000 </r>
       <r>  -54.4171    1.0000 </r>
       <r>  -29.8296    1.0000 </r>
       <r>  -29.8130    1.0000 </r>
       <r>  -29.8088    1.0000 </r>
       <r>  -29.7941    1.0000 </r>
       <r>  -15.2394    1.0000 </r>
       <r>  -15.0647    1.0000 </r>
       <r>  -15.0043    1.0000 </r>
       <r>  -14.5510    1.0000 </r>
       <r>  -14.2468    1.0000 </r>
       <r>  -14.2243    1.0000 </r>
       <r>  -14.2083    1.0000 </r>
       <r>  -14.1491    1.0000 </r>
       <r>  -14.0612    1.0000 </r>
       <r>  -14.0422    1.0000 </r>
       <r>  -14.0354    1.0000 </r>
       <r>  -14.0319    1.0000 </r>
       <r>  -12.0247    1.0000 </r>
       <r>  -11.9112    1.0000 </r>
       <r>  -11.8752    1.0000 </r>
       <r>  -11.8531    1.0000 </r>
       <r>  -11.8484    1.0000 </r>
       <r>  -11.8205    1.0000 </r>
       <r>  -11.7419    1.0000 </r>
       <r>  -11.7168    1.0000 </r>
       <r>  -11.6836    1.0000 </r>
       <r>  -11.6281    1.0000 </r>
       <r>  -11.5709    1.0000 </r>
       <r>  -11.5598    1.0000 </r>
       <r>   -5.2485    1.0000 </r>
       <r>   -5.1423    1.0000 </r>
       <r>   -4.9459    1.0000 </r>
       <r>   -4.8223    1.0000 </r>
       <r>   -4.6966    1.0000 </r>
       <r>   -4.6078    1.0000 </r>
       <r>   -4.5856    1.0000 </r>
       <r>   -4.5270    1.0000 </r>
       <r>   -4.5175    1.0000 </r>
       <r>   -4.4263    1.0000 </r>
       <r>   -4.3724    1.0000 </r>
       <r>   -4.3334    1.0000 </r>
       <r>   -4.3199    1.0000 </r>
       <r>   -4.2849    1.0000 </r>
       <r>   -4.2609    1.0000 </r>
       <r>   -4.1823    1.0000 </r>
       <r>   -4.1608    1.0000 </r>
       <r>   -4.0607    1.0000 </r>
       <r>   -4.0059    1.0000 </r>
       <r>   -3.1352    1.0000 </r>
       <r>   -2.9272    1.0000 </r>
       <r>   -1.8364    1.0000 </r>
       <r>   -1.4930    1.0000 </r>
       <r>   -1.3344    1.0000 </r>
       <r>   -0.6535    1.0000 </r>
       <r>   -0.1790    1.0000 </r>
       <r>    0.1363    1.0000 </r>
       <r>    0.1858    1.0000 </r>
       <r>    0.2714    1.0000 </r>
       <r>    0.3264    1.0000 </r>
       <r>    0.4256    1.0000 </r>
       <r>    0.6975    1.0000 </r>
       <r>    0.7298    1.0000 </r>
       <r>    0.7567    1.0000 </r>
       <r>    0.7720    1.0000 </r>
       <r>    0.8737    1.0000 </r>
       <r>    0.8892    1.0000 </r>
       <r>    0.9388    1.0000 </r>
       <r>    1.1975    1.0000 </r>
       <r>    1.2627    1.0000 </r>
       <r>    1.3016    1.0000 </r>
       <r>    1.4841    1.0000 </r>
       <r>    1.5293    1.0000 </r>
       <r>    1.6740    1.0000 </r>
       <r>    1.6881    1.0000 </r>
       <r>    1.8599    1.0000 </r>
       <r>    1.9366    1.0000 </r>
       <r>    1.9462    1.0000 </r>
       <r>    1.9669    1.0000 </r>
       <r>    2.0240    1.0000 </r>
       <r>    2.3405    1.0000 </r>
       <r>    2.3994    1.0244 </r>
       <r>    2.8230   -0.0352 </r>
       <r>    3.1743   -0.0263 </r>
       <r>    3.2319    0.0000 </r>
       <r>    3.8474    0.0000 </r>
       <r>    9.3588    0.0000 </r>
       <r>    9.4574    0.0000 </r>
       <r>   10.2552    0.0000 </r>
       <r>   10.3263    0.0000 </r>
       <r>   10.4221    0.0000 </r>
       <r>   10.5554    0.0000 </r>
       <r>   10.6889    0.0000 </r>
       <r>   10.8027    0.0000 </r>
       <r>   10.8510    0.0000 </r>
       <r>   10.9121    0.0000 </r>
       <r>   11.1358    0.0000 </r>
       <r>   11.1978    0.0000 </r>
       <r>   11.4397    0.0000 </r>
       <r>   11.6876    0.0000 </r>
      </set>
      <set comment="kpoint 3">
       <r>  -54.4333    1.0000 </r>
       <r>  -54.4333    1.0000 </r>
       <r>  -54.4328    1.0000 </r>
       <r>  -54.4327    1.0000 </r>
       <r>  -54.4327    1.0000 </r>
       <r>  -54.4326    1.0000 </r>
       <r>  -54.4322    1.0000 </r>
       <r>  -54.4321    1.0000 </r>
       <r>  -54.4184    1.0000 </r>
       <r>  -54.4183    1.0000 </r>
       <r>  -54.4171    1.0000 </r>
       <r>  -54.4171    1.0000 </r>
       <r>  -29.8296    1.0000 </r>
       <r>  -29.8130    1.0000 </r>
       <r>  -29.8088    1.0000 </r>
       <r>  -29.7941    1.0000 </r>
       <r>  -15.2394    1.0000 </r>
       <r>  -15.0646    1.0000 </r>
       <r>  -15.0042    1.0000 </r>
       <r>  -14.5508    1.0000 </r>
       <r>  -14.2470    1.0000 </r>
       <r>  -14.2243    1.0000 </r>
       <r>  -14.2081    1.0000 </r>
       <r>  -14.1493    1.0000 </r>
       <r>  -14.0614    1.0000 </r>
       <r>  -14.0424    1.0000 </r>
       <r>  -14.0355    1.0000 </r>
       <r>  -14.0319    1.0000 </r>
       <r>  -12.0245    1.0000 </r>
       <r>  -11.9110    1.0000 </r>
       <r>  -11.8747    1.0000 </r>
       <r>  -11.8530    1.0000 </r>
       <r>  -11.8485    1.0000 </r>
       <r>  -11.8207    1.0000 </r>
       <r>  -11.7419    1.0000 </r>
       <r>  -11.7168    1.0000 </r>
       <r>  -11.6836    1.0000 </r>
       <r>  -11.6280    1.0000 </r>
       <r>  -11.5710    1.0000 </r>
       <r>  -11.5598    1.0000 </r>
       <r>   -5.2485    1.0000 </r>
       <r>   -5.1423    1.0000 </r>
       <r>   -4.9459    1.0000 </r>
       <r>   -4.8224    1.0000 </r>
       <r>   -4.6966    1.0000 </r>
       <r>   -4.6079    1.0000 </r>
       <r>   -4.5856    1.0000 </r>
       <r>   -4.5270    1.0000 </r>
       <r>   -4.5174    1.0000 </r>
       <r>   -4.4263    1.0000 </r>
       <r>   -4.3724    1.0000 </r>
       <r>   -4.3334    1.0000 </r>
       <r>   -4.3199    1.0000 </r>
       <r>   -4.2849    1.0000 </r>
       <r>   -4.2609    1.0000 </r>
       <r>   -4.1824    1.0000 </r>
       <r>   -4.1608    1.0000 </r>
       <r>   -4.0608    1.0000 </r>
       <r>   -4.0059    1.0000 </r>
       <r>   -3.1351    1.0000 </r>
       <r>   -2.9272    1.0000 </r>
       <r>   -1.8362    1.0000 </r>
       <r>   -1.4929    1.0000 </r>
       <r>   -1.3344    1.0000 </r>
       <r>   -0.6535    1.0000 </r>
       <r>   -0.1792    1.0000 </r>
       <r>    0.1364    1.0000 </r>
       <r>    0.1859    1.0000 </r>
       <r>    0.2718    1.0000 </r>
       <r>    0.3266    1.0000 </r>
       <r>    0.4258    1.0000 </r>
       <r>    0.6983    1.0000 </r>
       <r>    0.7297    1.0000 </r>
       <r>    0.7562    1.0000 </r>
       <r>    0.7722    1.0000 </r>
       <r>    0.8741    1.0000 </r>
       <r>    0.8893    1.0000 </r>
       <r>    0.9382    1.0000 </r>
       <r>    1.1974    1.0000 </r>
       <r>    1.2627    1.0000 </r>
       <r>    1.3013    1.0000 </r>
       <r>    1.4838    1.0000 </r>
       <r>    1.5291    1.0000 </r>
       <r>    1.6737    1.0000 </r>
       <r>    1.6881    1.0000 </r>
       <r>    1.8597    1.0000 </r>
       <r>    1.9361    1.0000 </r>
       <r>    1.9461    1.0000 </r>
       <r>    1.9668    1.0000 </r>
       <r>    2.0240    1.0000 </r>
       <r>    2.3404    1.0000 </r>
       <r>    2.3990    1.0244 </r>
       <r>    2.8227   -0.0351 </r>
       <r>    3.1740   -0.0263 </r>
       <r>    3.2319    0.0000 </r>
       <r>    3.8474    0.0000 </r>
       <r>    9.3588    0.0000 </r>
       <r>    9.4574    0.0000 </r>
       <r>   10.2553    0.0000 </r>
       <r>   10.3333    0.0000 </r>
       <r>   10.4237    0.0000 </r>
       <r>   10.5408    0.0000 </r>
       <r>   10.7024    0.0000 </r>
       <r>   10.8237    0.0000 </r>
       <r>   10.8476    0.0000 </r>
       <r>   10.9450    0.0000 </r>
       <r>   11.1718    0.0000 </r>
       <r>   11.2164    0.0000 </r>
       <r>   11.4777    0.0000 </r>
       <r>   11.5775    0.0000 </r>
      </set>
      <set comment="kpoint 4">
       <r>  -54.4335    1.0000 </r>
       <r>  -54.4333    1.0000 </r>
       <r>  -54.4333    1.0000 </r>
       <r>  -54.4333    1.0000 </r>
       <r>  -54.4321    1.0000 </r>
       <r>  -54.4320    1.0000 </r>
       <r>  -54.4319    1.0000 </r>
       <r>  -54.4318    1.0000 </r>
       <r>  -54.4185    1.0000 </r>
       <r>  -54.4184    1.0000 </r>
       <r>  -54.4171    1.0000 </r>
       <r>  -54.4170    1.0000 </r>
       <r>  -29.8241    1.0000 </r>
       <r>  -29.8172    1.0000 </r>
       <r>  -29.8041    1.0000 </r>
       <r>  -29.7980    1.0000 </r>
       <r>  -15.3149    1.0000 </r>
       <r>  -15.2596    1.0000 </r>
       <r>  -14.7964    1.0000 </r>
       <r>  -14.5441    1.0000 </r>
       <r>  -14.3507    1.0000 </r>
       <r>  -14.3350    1.0000 </r>
       <r>  -14.2491    1.0000 </r>
       <r>  -14.1574    1.0000 </r>
       <r>  -14.1110    1.0000 </r>
       <r>  -14.0924    1.0000 </r>
       <r>  -14.0156    1.0000 </r>
       <r>  -14.0112    1.0000 </r>
       <r>  -11.8700    1.0000 </r>
       <r>  -11.8567    1.0000 </r>
       <r>  -11.8551    1.0000 </r>
       <r>  -11.8481    1.0000 </r>
       <r>  -11.7981    1.0000 </r>
       <r>  -11.7772    1.0000 </r>
       <r>  -11.6670    1.0000 </r>
       <r>  -11.6655    1.0000 </r>
       <r>  -11.6288    1.0000 </r>
       <r>  -11.5847    1.0000 </r>
       <r>  -11.4753    1.0000 </r>
       <r>  -11.4550    1.0000 </r>
       <r>   -5.3558    1.0000 </r>
       <r>   -5.2463    1.0000 </r>
       <r>   -5.1650    1.0000 </r>
       <r>   -4.8922    1.0000 </r>
       <r>   -4.8164    1.0000 </r>
       <r>   -4.8151    1.0000 </r>
       <r>   -4.7847    1.0000 </r>
       <r>   -4.6127    1.0000 </r>
       <r>   -4.4762    1.0000 </r>
       <r>   -4.4577    1.0000 </r>
       <r>   -4.4517    1.0000 </r>
       <r>   -4.4091    1.0000 </r>
       <r>   -4.3991    1.0000 </r>
       <r>   -4.3864    1.0000 </r>
       <r>   -4.3459    1.0000 </r>
       <r>   -4.3398    1.0000 </r>
       <r>   -4.1656    1.0000 </r>
       <r>   -4.1098    1.0000 </r>
       <r>   -3.1408    1.0000 </r>
       <r>   -2.6512    1.0000 </r>
       <r>   -1.8175    1.0000 </r>
       <r>   -1.3870    1.0000 </r>
       <r>   -1.2154    1.0000 </r>
       <r>   -1.1264    1.0000 </r>
       <r>   -0.5999    1.0000 </r>
       <r>   -0.5847    1.0000 </r>
       <r>   -0.2451    1.0000 </r>
       <r>    0.0302    1.0000 </r>
       <r>    0.0758    1.0000 </r>
       <r>    0.0801    1.0000 </r>
       <r>    0.0903    1.0000 </r>
       <r>    0.6408    1.0000 </r>
       <r>    0.7306    1.0000 </r>
       <r>    0.8356    1.0000 </r>
       <r>    0.8395    1.0000 </r>
       <r>    0.8975    1.0000 </r>
       <r>    0.9739    1.0000 </r>
       <r>    1.1175    1.0000 </r>
       <r>    1.1461    1.0000 </r>
       <r>    1.1922    1.0000 </r>
       <r>    1.2955    1.0000 </r>
       <r>    1.3997    1.0000 </r>
       <r>    1.4292    1.0000 </r>
       <r>    1.4635    1.0000 </r>
       <r>    1.5457    1.0000 </r>
       <r>    1.5509    1.0000 </r>
       <r>    1.5734    1.0000 </r>
       <r>    1.6625    1.0000 </r>
       <r>    1.7476    1.0000 </r>
       <r>    1.7508    1.0000 </r>
       <r>    2.0659    1.0000 </r>
       <r>    2.2906    1.0072 </r>
       <r>    2.4240    0.7706 </r>
       <r>    2.4646    0.4093 </r>
       <r>    3.8581    0.0000 </r>
       <r>    4.0945    0.0000 </r>
       <r>    9.8563    0.0000 </r>
       <r>    9.9951    0.0000 </r>
       <r>   10.2749    0.0000 </r>
       <r>   10.5279    0.0000 </r>
       <r>   10.6095    0.0000 </r>
       <r>   10.7065    0.0000 </r>
       <r>   10.9701    0.0000 </r>
       <r>   10.9897    0.0000 </r>
       <r>   11.1141    0.0000 </r>
       <r>   11.3282    0.0000 </r>
       <r>   11.5306    0.0000 </r>
       <r>   11.6897    0.0000 </r>
       <r>   11.8207    0.0000 </r>
       <r>   12.0841    0.0000 </r>
      </set>
      <set comment="kpoint 5">
       <r>  -54.4335    1.0000 </r>
       <r>  -54.4334    1.0000 </r>
       <r>  -54.4334    1.0000 </r>
       <r>  -54.4332    1.0000 </r>
       <r>  -54.4322    1.0000 </r>
       <r>  -54.4322    1.0000 </r>
       <r>  -54.4320    1.0000 </r>
       <r>  -54.4319    1.0000 </r>
       <r>  -54.4181    1.0000 </r>
       <r>  -54.4179    1.0000 </r>
       <r>  -54.4176    1.0000 </r>
       <r>  -54.4174    1.0000 </r>
       <r>  -29.8354    1.0000 </r>
       <r>  -29.8261    1.0000 </r>
       <r>  -29.7967    1.0000 </r>
       <r>  -29.7893    1.0000 </r>
       <r>  -15.2619    1.0000 </r>
       <r>  -15.2600    1.0000 </r>
       <r>  -14.6149    1.0000 </r>
       <r>  -14.3960    1.0000 </r>
       <r>  -14.2674    1.0000 </r>
       <r>  -14.1664    1.0000 </r>
       <r>  -14.1438    1.0000 </r>
       <r>  -14.1308    1.0000 </r>
       <r>  -14.1028    1.0000 </r>
       <r>  -14.0452    1.0000 </r>
       <r>  -14.0262    1.0000 </r>
       <r>  -14.0223    1.0000 </r>
       <r>  -12.0933    1.0000 </r>
       <r>  -11.9551    1.0000 </r>
       <r>  -11.9238    1.0000 </r>
       <r>  -11.8810    1.0000 </r>
       <r>  -11.8698    1.0000 </r>
       <r>  -11.8578    1.0000 </r>
       <r>  -11.8386    1.0000 </r>
       <r>  -11.8202    1.0000 </r>
       <r>  -11.7313    1.0000 </r>
       <r>  -11.7184    1.0000 </r>
       <r>  -11.7114    1.0000 </r>
       <r>  -11.5584    1.0000 </r>
       <r>   -5.2851    1.0000 </r>
       <r>   -5.2764    1.0000 </r>
       <r>   -4.9970    1.0000 </r>
       <r>   -4.7702    1.0000 </r>
       <r>   -4.7555    1.0000 </r>
       <r>   -4.6903    1.0000 </r>
       <r>   -4.6011    1.0000 </r>
       <r>   -4.5781    1.0000 </r>
       <r>   -4.5443    1.0000 </r>
       <r>   -4.4978    1.0000 </r>
       <r>   -4.4634    1.0000 </r>
       <r>   -4.3488    1.0000 </r>
       <r>   -4.2905    1.0000 </r>
       <r>   -4.2421    1.0000 </r>
       <r>   -4.1929    1.0000 </r>
       <r>   -4.1608    1.0000 </r>
       <r>   -4.1562    1.0000 </r>
       <r>   -3.7586    1.0000 </r>
       <r>   -3.2960    1.0000 </r>
       <r>   -3.0305    1.0000 </r>
       <r>   -2.9997    1.0000 </r>
       <r>   -2.4377    1.0000 </r>
       <r>   -1.2283    1.0000 </r>
       <r>   -1.1644    1.0000 </r>
       <r>   -1.0451    1.0000 </r>
       <r>   -0.9436    1.0000 </r>
       <r>   -0.0625    1.0000 </r>
       <r>    0.1992    1.0000 </r>
       <r>    0.2116    1.0000 </r>
       <r>    0.4656    1.0000 </r>
       <r>    0.7295    1.0000 </r>
       <r>    0.7555    1.0000 </r>
       <r>    0.7584    1.0000 </r>
       <r>    0.7820    1.0000 </r>
       <r>    0.7952    1.0000 </r>
       <r>    1.0077    1.0000 </r>
       <r>    1.2533    1.0000 </r>
       <r>    1.3448    1.0000 </r>
       <r>    1.3532    1.0000 </r>
       <r>    1.3642    1.0000 </r>
       <r>    1.4279    1.0000 </r>
       <r>    1.4434    1.0000 </r>
       <r>    1.5204    1.0000 </r>
       <r>    1.6729    1.0000 </r>
       <r>    1.7909    1.0000 </r>
       <r>    1.9292    1.0000 </r>
       <r>    1.9406    1.0000 </r>
       <r>    2.1134    1.0000 </r>
       <r>    2.2130    1.0000 </r>
       <r>    2.3230    1.0000 </r>
       <r>    2.3753    1.0000 </r>
       <r>    2.3887    1.0609 </r>
       <r>    2.4302    0.8133 </r>
       <r>    3.2841   -0.0010 </r>
       <r>    3.9395    0.0000 </r>
       <r>    3.9461    0.0000 </r>
       <r>    8.9726    0.0000 </r>
       <r>    9.0749    0.0000 </r>
       <r>    9.6095    0.0000 </r>
       <r>    9.8217    0.0000 </r>
       <r>    9.8576    0.0000 </r>
       <r>   10.2280    0.0000 </r>
       <r>   10.3821    0.0000 </r>
       <r>   10.4396    0.0000 </r>
       <r>   10.6005    0.0000 </r>
       <r>   10.8514    0.0000 </r>
       <r>   10.9913    0.0000 </r>
       <r>   11.0700    0.0000 </r>
       <r>   11.1622    0.0000 </r>
       <r>   11.3469    0.0000 </r>
      </set>
      <set comment="kpoint 6">
       <r>  -54.4334    1.0000 </r>
       <r>  -54.4333    1.0000 </r>
       <r>  -54.4328    1.0000 </r>
       <r>  -54.4328    1.0000 </r>
       <r>  -54.4327    1.0000 </r>
       <r>  -54.4327    1.0000 </r>
       <r>  -54.4322    1.0000 </r>
       <r>  -54.4322    1.0000 </r>
       <r>  -54.4181    1.0000 </r>
       <r>  -54.4181    1.0000 </r>
       <r>  -54.4175    1.0000 </r>
       <r>  -54.4174    1.0000 </r>
       <r>  -29.8235    1.0000 </r>
       <r>  -29.8149    1.0000 </r>
       <r>  -29.8075    1.0000 </r>
       <r>  -29.7996    1.0000 </r>
       <r>  -15.1580    1.0000 </r>
       <r>  -15.0561    1.0000 </r>
       <r>  -14.9399    1.0000 </r>
       <r>  -14.7364    1.0000 </r>
       <r>  -14.2259    1.0000 </r>
       <r>  -14.2120    1.0000 </r>
       <r>  -14.1890    1.0000 </r>
       <r>  -14.1722    1.0000 </r>
       <r>  -14.0650    1.0000 </r>
       <r>  -14.0528    1.0000 </r>
       <r>  -14.0454    1.0000 </r>
       <r>  -14.0406    1.0000 </r>
       <r>  -11.9892    1.0000 </r>
       <r>  -11.9429    1.0000 </r>
       <r>  -11.8862    1.0000 </r>
       <r>  -11.8740    1.0000 </r>
       <r>  -11.8495    1.0000 </r>
       <r>  -11.7950    1.0000 </r>
       <r>  -11.7545    1.0000 </r>
       <r>  -11.7477    1.0000 </r>
       <r>  -11.6389    1.0000 </r>
       <r>  -11.6024    1.0000 </r>
       <r>  -11.5797    1.0000 </r>
       <r>  -11.5708    1.0000 </r>
       <r>   -5.0277    1.0000 </r>
       <r>   -4.9593    1.0000 </r>
       <r>   -4.6978    1.0000 </r>
       <r>   -4.6526    1.0000 </r>
       <r>   -4.6178    1.0000 </r>
       <r>   -4.5895    1.0000 </r>
       <r>   -4.5152    1.0000 </r>
       <r>   -4.5104    1.0000 </r>
       <r>   -4.4636    1.0000 </r>
       <r>   -4.4500    1.0000 </r>
       <r>   -4.3808    1.0000 </r>
       <r>   -4.3659    1.0000 </r>
       <r>   -4.3575    1.0000 </r>
       <r>   -4.3256    1.0000 </r>
       <r>   -4.3151    1.0000 </r>
       <r>   -4.2556    1.0000 </r>
       <r>   -4.2464    1.0000 </r>
       <r>   -4.2161    1.0000 </r>
       <r>   -4.0116    1.0000 </r>
       <r>   -3.6673    1.0000 </r>
       <r>   -2.7777    1.0000 </r>
       <r>   -2.2862    1.0000 </r>
       <r>   -1.8777    1.0000 </r>
       <r>   -1.8575    1.0000 </r>
       <r>    0.0013    1.0000 </r>
       <r>    0.1865    1.0000 </r>
       <r>    0.2575    1.0000 </r>
       <r>    0.3053    1.0000 </r>
       <r>    0.4682    1.0000 </r>
       <r>    0.4747    1.0000 </r>
       <r>    0.6949    1.0000 </r>
       <r>    0.7087    1.0000 </r>
       <r>    0.7467    1.0000 </r>
       <r>    0.7553    1.0000 </r>
       <r>    0.7756    1.0000 </r>
       <r>    0.7798    1.0000 </r>
       <r>    0.7996    1.0000 </r>
       <r>    0.8351    1.0000 </r>
       <r>    0.8836    1.0000 </r>
       <r>    1.1231    1.0000 </r>
       <r>    1.2572    1.0000 </r>
       <r>    1.3905    1.0000 </r>
       <r>    1.5045    1.0000 </r>
       <r>    1.7005    1.0000 </r>
       <r>    1.7097    1.0000 </r>
       <r>    1.8599    1.0000 </r>
       <r>    2.0083    1.0000 </r>
       <r>    2.0868    1.0000 </r>
       <r>    2.1692    1.0000 </r>
       <r>    2.1750    1.0000 </r>
       <r>    2.3749    1.0000 </r>
       <r>    2.6222    0.6163 </r>
       <r>    2.8300   -0.0272 </r>
       <r>    3.0127   -0.0046 </r>
       <r>    3.1893    0.0000 </r>
       <r>    3.4550    0.0000 </r>
       <r>    9.6197    0.0000 </r>
       <r>    9.8021    0.0000 </r>
       <r>   10.0562    0.0000 </r>
       <r>   10.4481    0.0000 </r>
       <r>   10.4565    0.0000 </r>
       <r>   10.4834    0.0000 </r>
       <r>   10.5736    0.0000 </r>
       <r>   10.6209    0.0000 </r>
       <r>   10.6554    0.0000 </r>
       <r>   10.7390    0.0000 </r>
       <r>   10.8264    0.0000 </r>
       <r>   10.9817    0.0000 </r>
       <r>   11.5923    0.0000 </r>
       <r>   11.6390    0.0000 </r>
      </set>
      <set comment="kpoint 7">
       <r>  -54.4334    1.0000 </r>
       <r>  -54.4333    1.0000 </r>
       <r>  -54.4328    1.0000 </r>
       <r>  -54.4328    1.0000 </r>
       <r>  -54.4327    1.0000 </r>
       <r>  -54.4327    1.0000 </r>
       <r>  -54.4322    1.0000 </r>
       <r>  -54.4322    1.0000 </r>
       <r>  -54.4181    1.0000 </r>
       <r>  -54.4181    1.0000 </r>
       <r>  -54.4175    1.0000 </r>
       <r>  -54.4174    1.0000 </r>
       <r>  -29.8235    1.0000 </r>
       <r>  -29.8149    1.0000 </r>
       <r>  -29.8075    1.0000 </r>
       <r>  -29.7996    1.0000 </r>
       <r>  -15.1580    1.0000 </r>
       <r>  -15.0560    1.0000 </r>
       <r>  -14.9398    1.0000 </r>
       <r>  -14.7363    1.0000 </r>
       <r>  -14.2257    1.0000 </r>
       <r>  -14.2125    1.0000 </r>
       <r>  -14.1884    1.0000 </r>
       <r>  -14.1731    1.0000 </r>
       <r>  -14.0647    1.0000 </r>
       <r>  -14.0533    1.0000 </r>
       <r>  -14.0454    1.0000 </r>
       <r>  -14.0408    1.0000 </r>
       <r>  -11.9890    1.0000 </r>
       <r>  -11.9428    1.0000 </r>
       <r>  -11.8860    1.0000 </r>
       <r>  -11.8742    1.0000 </r>
       <r>  -11.8487    1.0000 </r>
       <r>  -11.7953    1.0000 </r>
       <r>  -11.7537    1.0000 </r>
       <r>  -11.7485    1.0000 </r>
       <r>  -11.6389    1.0000 </r>
       <r>  -11.6024    1.0000 </r>
       <r>  -11.5797    1.0000 </r>
       <r>  -11.5708    1.0000 </r>
       <r>   -5.0277    1.0000 </r>
       <r>   -4.9593    1.0000 </r>
       <r>   -4.6978    1.0000 </r>
       <r>   -4.6526    1.0000 </r>
       <r>   -4.6179    1.0000 </r>
       <r>   -4.5895    1.0000 </r>
       <r>   -4.5152    1.0000 </r>
       <r>   -4.5104    1.0000 </r>
       <r>   -4.4637    1.0000 </r>
       <r>   -4.4500    1.0000 </r>
       <r>   -4.3807    1.0000 </r>
       <r>   -4.3659    1.0000 </r>
       <r>   -4.3575    1.0000 </r>
       <r>   -4.3256    1.0000 </r>
       <r>   -4.3151    1.0000 </r>
       <r>   -4.2556    1.0000 </r>
       <r>   -4.2463    1.0000 </r>
       <r>   -4.2161    1.0000 </r>
       <r>   -4.0116    1.0000 </r>
       <r>   -3.6674    1.0000 </r>
       <r>   -2.7777    1.0000 </r>
       <r>   -2.2862    1.0000 </r>
       <r>   -1.8776    1.0000 </r>
       <r>   -1.8573    1.0000 </r>
       <r>    0.0014    1.0000 </r>
       <r>    0.1867    1.0000 </r>
       <r>    0.2576    1.0000 </r>
       <r>    0.3054    1.0000 </r>
       <r>    0.4680    1.0000 </r>
       <r>    0.4749    1.0000 </r>
       <r>    0.6945    1.0000 </r>
       <r>    0.7091    1.0000 </r>
       <r>    0.7467    1.0000 </r>
       <r>    0.7575    1.0000 </r>
       <r>    0.7730    1.0000 </r>
       <r>    0.7821    1.0000 </r>
       <r>    0.7976    1.0000 </r>
       <r>    0.8356    1.0000 </r>
       <r>    0.8838    1.0000 </r>
       <r>    1.1231    1.0000 </r>
       <r>    1.2571    1.0000 </r>
       <r>    1.3905    1.0000 </r>
       <r>    1.5043    1.0000 </r>
       <r>    1.7021    1.0000 </r>
       <r>    1.7077    1.0000 </r>
       <r>    1.8595    1.0000 </r>
       <r>    2.0082    1.0000 </r>
       <r>    2.0865    1.0000 </r>
       <r>    2.1702    1.0000 </r>
       <r>    2.1736    1.0000 </r>
       <r>    2.3749    1.0000 </r>
       <r>    2.6220    0.6169 </r>
       <r>    2.8298   -0.0271 </r>
       <r>    3.0126   -0.0047 </r>
       <r>    3.1890    0.0000 </r>
       <r>    3.4549    0.0000 </r>
       <r>    9.6196    0.0000 </r>
       <r>    9.8019    0.0000 </r>
       <r>   10.0555    0.0000 </r>
       <r>   10.4532    0.0000 </r>
       <r>   10.4604    0.0000 </r>
       <r>   10.4871    0.0000 </r>
       <r>   10.5688    0.0000 </r>
       <r>   10.6270    0.0000 </r>
       <r>   10.6467    0.0000 </r>
       <r>   10.7477    0.0000 </r>
       <r>   10.8151    0.0000 </r>
       <r>   10.9879    0.0000 </r>
       <r>   11.5201    0.0000 </r>
       <r>   11.6789    0.0000 </r>
      </set>
      <set comment="kpoint 8">
       <r>  -54.4334    1.0000 </r>
       <r>  -54.4334    1.0000 </r>
       <r>  -54.4333    1.0000 </r>
       <r>  -54.4332    1.0000 </r>
       <r>  -54.4322    1.0000 </r>
       <r>  -54.4320    1.0000 </r>
       <r>  -54.4319    1.0000 </r>
       <r>  -54.4318    1.0000 </r>
       <r>  -54.4182    1.0000 </r>
       <r>  -54.4180    1.0000 </r>
       <r>  -54.4175    1.0000 </r>
       <r>  -54.4174    1.0000 </r>
       <r>  -29.8182    1.0000 </r>
       <r>  -29.8116    1.0000 </r>
       <r>  -29.8100    1.0000 </r>
       <r>  -29.8036    1.0000 </r>
       <r>  -15.1850    1.0000 </r>
       <r>  -15.1131    1.0000 </r>
       <r>  -14.9744    1.0000 </r>
       <r>  -14.8526    1.0000 </r>
       <r>  -14.3109    1.0000 </r>
       <r>  -14.2694    1.0000 </r>
       <r>  -14.1898    1.0000 </r>
       <r>  -14.1764    1.0000 </r>
       <r>  -14.0766    1.0000 </r>
       <r>  -14.0605    1.0000 </r>
       <r>  -14.0206    1.0000 </r>
       <r>  -14.0153    1.0000 </r>
       <r>  -11.9143    1.0000 </r>
       <r>  -11.8997    1.0000 </r>
       <r>  -11.8385    1.0000 </r>
       <r>  -11.8149    1.0000 </r>
       <r>  -11.7699    1.0000 </r>
       <r>  -11.6975    1.0000 </r>
       <r>  -11.6705    1.0000 </r>
       <r>  -11.6604    1.0000 </r>
       <r>  -11.6169    1.0000 </r>
       <r>  -11.5794    1.0000 </r>
       <r>  -11.5279    1.0000 </r>
       <r>  -11.5234    1.0000 </r>
       <r>   -5.2360    1.0000 </r>
       <r>   -5.1823    1.0000 </r>
       <r>   -5.0212    1.0000 </r>
       <r>   -4.9193    1.0000 </r>
       <r>   -4.7050    1.0000 </r>
       <r>   -4.6656    1.0000 </r>
       <r>   -4.5440    1.0000 </r>
       <r>   -4.4797    1.0000 </r>
       <r>   -4.4624    1.0000 </r>
       <r>   -4.4384    1.0000 </r>
       <r>   -4.4350    1.0000 </r>
       <r>   -4.3833    1.0000 </r>
       <r>   -4.3712    1.0000 </r>
       <r>   -4.3574    1.0000 </r>
       <r>   -4.3273    1.0000 </r>
       <r>   -4.3099    1.0000 </r>
       <r>   -4.2588    1.0000 </r>
       <r>   -4.2053    1.0000 </r>
       <r>   -3.7001    1.0000 </r>
       <r>   -3.5322    1.0000 </r>
       <r>   -1.8330    1.0000 </r>
       <r>   -1.7744    1.0000 </r>
       <r>   -1.0361    1.0000 </r>
       <r>   -0.7826    1.0000 </r>
       <r>   -0.7162    1.0000 </r>
       <r>   -0.4344    1.0000 </r>
       <r>    0.1109    1.0000 </r>
       <r>    0.1114    1.0000 </r>
       <r>    0.1231    1.0000 </r>
       <r>    0.1813    1.0000 </r>
       <r>    0.2336    1.0000 </r>
       <r>    0.6539    1.0000 </r>
       <r>    0.6831    1.0000 </r>
       <r>    0.7259    1.0000 </r>
       <r>    0.7550    1.0000 </r>
       <r>    0.8411    1.0000 </r>
       <r>    0.8565    1.0000 </r>
       <r>    0.9075    1.0000 </r>
       <r>    0.9414    1.0000 </r>
       <r>    1.0865    1.0000 </r>
       <r>    1.2140    1.0000 </r>
       <r>    1.3317    1.0000 </r>
       <r>    1.4700    1.0000 </r>
       <r>    1.5069    1.0000 </r>
       <r>    1.5814    1.0000 </r>
       <r>    1.6421    1.0000 </r>
       <r>    1.7446    1.0000 </r>
       <r>    1.8290    1.0000 </r>
       <r>    1.8952    1.0000 </r>
       <r>    1.9284    1.0000 </r>
       <r>    2.0663    1.0000 </r>
       <r>    2.2048    1.0726 </r>
       <r>    2.7948   -0.0116 </r>
       <r>    2.8965   -0.0155 </r>
       <r>    3.4648    0.0000 </r>
       <r>    3.6234    0.0000 </r>
       <r>   10.0490    0.0000 </r>
       <r>   10.3621    0.0000 </r>
       <r>   10.4769    0.0000 </r>
       <r>   10.5263    0.0000 </r>
       <r>   10.7203    0.0000 </r>
       <r>   10.8178    0.0000 </r>
       <r>   10.9299    0.0000 </r>
       <r>   11.0957    0.0000 </r>
       <r>   11.2853    0.0000 </r>
       <r>   11.3248    0.0000 </r>
       <r>   11.4150    0.0000 </r>
       <r>   11.4553    0.0000 </r>
       <r>   11.5356    0.0000 </r>
       <r>   11.8016    0.0000 </r>
      </set>
     </set>
     <set comment="spin 2">
      <set comment="kpoint 1">
       <r>  -50.1497    1.0000 </r>
       <r>  -50.1497    1.0000 </r>
       <r>  -50.1494    1.0000 </r>
       <r>  -50.1493    1.0000 </r>
       <r>  -50.1478    1.0000 </r>
       <r>  -50.1475    1.0000 </r>
       <r>  -50.1475    1.0000 </r>
       <r>  -50.1473    1.0000 </r>
       <r>  -50.1181    1.0000 </r>
       <r>  -50.1181    1.0000 </r>
       <r>  -50.1162    1.0000 </r>
       <r>  -50.1158    1.0000 </r>
       <r>  -29.8368    1.0000 </r>
       <r>  -29.8146    1.0000 </r>
       <r>  -29.7971    1.0000 </r>
       <r>  -29.7793    1.0000 </r>
       <r>  -15.1470    1.0000 </r>
       <r>  -15.1218    1.0000 </r>
       <r>  -14.5725    1.0000 </r>
       <r>  -14.2327    1.0000 </r>
       <r>  -14.0326    1.0000 </r>
       <r>  -13.9798    1.0000 </r>
       <r>  -13.9549    1.0000 </r>
       <r>  -13.9149    1.0000 </r>
       <r>  -13.8733    1.0000 </r>
       <r>  -13.7332    1.0000 </r>
       <r>  -13.6486    1.0000 </r>
       <r>  -13.6461    1.0000 </r>
       <r>  -12.1160    1.0000 </r>
       <r>  -12.0366    1.0000 </r>
       <r>  -12.0120    1.0000 </r>
       <r>  -11.8870    1.0000 </r>
       <r>  -11.8696    1.0000 </r>
       <r>  -11.8318    1.0000 </r>
       <r>  -11.8120    1.0000 </r>
       <r>  -11.7942    1.0000 </r>
       <r>  -11.7914    1.0000 </r>
       <r>  -11.6200    1.0000 </r>
       <r>  -11.5735    1.0000 </r>
       <r>  -11.4145    1.0000 </r>
       <r>   -3.4011    1.0000 </r>
       <r>   -2.7466    1.0000 </r>
       <r>   -2.1507    1.0000 </r>
       <r>   -1.5450    1.0000 </r>
       <r>   -1.5423    1.0000 </r>
       <r>   -1.5061    1.0000 </r>
       <r>   -1.4685    1.0000 </r>
       <r>   -1.3893    1.0000 </r>
       <r>   -1.2036    1.0000 </r>
       <r>   -1.1831    1.0000 </r>
       <r>   -1.1756    1.0000 </r>
       <r>   -1.0757    1.0000 </r>
       <r>   -0.9007    1.0000 </r>
       <r>   -0.7273    1.0000 </r>
       <r>   -0.6741    1.0000 </r>
       <r>   -0.6424    1.0000 </r>
       <r>   -0.3265    1.0000 </r>
       <r>    0.0173    1.0000 </r>
       <r>    0.2764    1.0000 </r>
       <r>    0.5134    1.0000 </r>
       <r>    0.6596    1.0000 </r>
       <r>    1.1928    1.0000 </r>
       <r>    1.2302    1.0000 </r>
       <r>    1.2680    1.0000 </r>
       <r>    1.3773    1.0000 </r>
       <r>    1.4206    1.0000 </r>
       <r>    1.4445    1.0000 </r>
       <r>    1.4921    1.0000 </r>
       <r>    1.5563    1.0000 </r>
       <r>    1.6924    1.0000 </r>
       <r>    1.9796    1.0000 </r>
       <r>    1.9909    1.0000 </r>
       <r>    2.5081    1.0000 </r>
       <r>    2.5191    1.0000 </r>
       <r>    2.5343    1.0000 </r>
       <r>    2.6921   -0.0103 </r>
       <r>    3.9324    0.0000 </r>
       <r>    4.1069    0.0000 </r>
       <r>    4.1466    0.0000 </r>
       <r>    4.1532    0.0000 </r>
       <r>    4.4032    0.0000 </r>
       <r>    4.5553    0.0000 </r>
       <r>    4.7489    0.0000 </r>
       <r>    5.0122    0.0000 </r>
       <r>    5.1129    0.0000 </r>
       <r>    5.1372    0.0000 </r>
       <r>    5.1399    0.0000 </r>
       <r>    5.1776    0.0000 </r>
       <r>    5.3109    0.0000 </r>
       <r>    5.4467    0.0000 </r>
       <r>    5.4521    0.0000 </r>
       <r>    5.5000    0.0000 </r>
       <r>    6.1739    0.0000 </r>
       <r>    7.3228    0.0000 </r>
       <r>    7.4648    0.0000 </r>
       <r>    7.6601    0.0000 </r>
       <r>    8.6118    0.0000 </r>
       <r>    8.6528    0.0000 </r>
       <r>    9.4540    0.0000 </r>
       <r>    9.9759    0.0000 </r>
       <r>   10.0989    0.0000 </r>
       <r>   10.1018    0.0000 </r>
       <r>   10.2013    0.0000 </r>
       <r>   10.4776    0.0000 </r>
       <r>   10.8856    0.0000 </r>
       <r>   11.0177    0.0000 </r>
       <r>   11.1118    0.0000 </r>
       <r>   11.1945    0.0000 </r>
       <r>   11.2467    0.0000 </r>
       <r>   11.4734    0.0000 </r>
      </set>
      <set comment="kpoint 2">
       <r>  -50.1494    1.0000 </r>
       <r>  -50.1494    1.0000 </r>
       <r>  -50.1486    1.0000 </r>
       <r>  -50.1485    1.0000 </r>
       <r>  -50.1485    1.0000 </r>
       <r>  -50.1483    1.0000 </r>
       <r>  -50.1477    1.0000 </r>
       <r>  -50.1475    1.0000 </r>
       <r>  -50.1181    1.0000 </r>
       <r>  -50.1180    1.0000 </r>
       <r>  -50.1160    1.0000 </r>
       <r>  -50.1159    1.0000 </r>
       <r>  -29.8246    1.0000 </r>
       <r>  -29.8081    1.0000 </r>
       <r>  -29.8039    1.0000 </r>
       <r>  -29.7893    1.0000 </r>
       <r>  -15.0965    1.0000 </r>
       <r>  -14.9101    1.0000 </r>
       <r>  -14.8542    1.0000 </r>
       <r>  -14.4176    1.0000 </r>
       <r>  -14.0949    1.0000 </r>
       <r>  -14.0802    1.0000 </r>
       <r>  -14.0678    1.0000 </r>
       <r>  -13.8962    1.0000 </r>
       <r>  -13.8639    1.0000 </r>
       <r>  -13.7410    1.0000 </r>
       <r>  -13.7104    1.0000 </r>
       <r>  -13.6642    1.0000 </r>
       <r>  -12.0054    1.0000 </r>
       <r>  -11.8959    1.0000 </r>
       <r>  -11.8598    1.0000 </r>
       <r>  -11.8402    1.0000 </r>
       <r>  -11.8189    1.0000 </r>
       <r>  -11.7968    1.0000 </r>
       <r>  -11.7188    1.0000 </r>
       <r>  -11.6898    1.0000 </r>
       <r>  -11.6602    1.0000 </r>
       <r>  -11.5941    1.0000 </r>
       <r>  -11.5383    1.0000 </r>
       <r>  -11.5273    1.0000 </r>
       <r>   -2.9590    1.0000 </r>
       <r>   -2.4544    1.0000 </r>
       <r>   -2.3603    1.0000 </r>
       <r>   -1.8439    1.0000 </r>
       <r>   -1.4863    1.0000 </r>
       <r>   -1.3771    1.0000 </r>
       <r>   -1.3585    1.0000 </r>
       <r>   -1.2257    1.0000 </r>
       <r>   -1.2156    1.0000 </r>
       <r>   -1.1226    1.0000 </r>
       <r>   -1.1166    1.0000 </r>
       <r>   -1.0367    1.0000 </r>
       <r>   -0.9612    1.0000 </r>
       <r>   -0.9524    1.0000 </r>
       <r>   -0.8492    1.0000 </r>
       <r>   -0.4791    1.0000 </r>
       <r>   -0.3917    1.0000 </r>
       <r>   -0.0913    1.0000 </r>
       <r>    0.2494    1.0000 </r>
       <r>    0.3436    1.0000 </r>
       <r>    0.4506    1.0000 </r>
       <r>    0.6851    1.0000 </r>
       <r>    0.7264    1.0000 </r>
       <r>    1.1086    1.0000 </r>
       <r>    1.1616    1.0000 </r>
       <r>    1.3747    1.0000 </r>
       <r>    1.3914    1.0000 </r>
       <r>    1.5103    1.0000 </r>
       <r>    1.5468    1.0000 </r>
       <r>    1.6784    1.0000 </r>
       <r>    1.7368    1.0000 </r>
       <r>    1.9676    1.0000 </r>
       <r>    2.0326    1.0000 </r>
       <r>    2.0892    1.0000 </r>
       <r>    2.1127    1.0000 </r>
       <r>    2.5374    0.8994 </r>
       <r>    4.1777    0.0000 </r>
       <r>    4.5821    0.0000 </r>
       <r>    4.6335    0.0000 </r>
       <r>    4.6374    0.0000 </r>
       <r>    4.6837    0.0000 </r>
       <r>    4.7484    0.0000 </r>
       <r>    4.9544    0.0000 </r>
       <r>    5.0401    0.0000 </r>
       <r>    5.0992    0.0000 </r>
       <r>    5.1422    0.0000 </r>
       <r>    5.1825    0.0000 </r>
       <r>    5.1900    0.0000 </r>
       <r>    5.2711    0.0000 </r>
       <r>    5.3026    0.0000 </r>
       <r>    5.3678    0.0000 </r>
       <r>    5.5652    0.0000 </r>
       <r>    6.3879    0.0000 </r>
       <r>    6.6366    0.0000 </r>
       <r>    6.8151    0.0000 </r>
       <r>    7.4111    0.0000 </r>
       <r>    9.4406    0.0000 </r>
       <r>    9.5151    0.0000 </r>
       <r>   10.3524    0.0000 </r>
       <r>   10.4809    0.0000 </r>
       <r>   10.4982    0.0000 </r>
       <r>   10.6387    0.0000 </r>
       <r>   10.8087    0.0000 </r>
       <r>   10.9051    0.0000 </r>
       <r>   10.9318    0.0000 </r>
       <r>   11.0661    0.0000 </r>
       <r>   11.2372    0.0000 </r>
       <r>   11.3028    0.0000 </r>
       <r>   11.3936    0.0000 </r>
       <r>   11.8007    0.0000 </r>
      </set>
      <set comment="kpoint 3">
       <r>  -50.1494    1.0000 </r>
       <r>  -50.1494    1.0000 </r>
       <r>  -50.1486    1.0000 </r>
       <r>  -50.1485    1.0000 </r>
       <r>  -50.1485    1.0000 </r>
       <r>  -50.1483    1.0000 </r>
       <r>  -50.1477    1.0000 </r>
       <r>  -50.1475    1.0000 </r>
       <r>  -50.1181    1.0000 </r>
       <r>  -50.1180    1.0000 </r>
       <r>  -50.1160    1.0000 </r>
       <r>  -50.1159    1.0000 </r>
       <r>  -29.8246    1.0000 </r>
       <r>  -29.8081    1.0000 </r>
[...]
       <r>    0.1771    1.0000 </r>
       <r>    0.1958    1.0000 </r>
       <r>    0.4307    1.0000 </r>
       <r>    0.6356    1.0000 </r>
       <r>    0.6841    1.0000 </r>
       <r>    0.9416    1.0000 </r>
       <r>    1.0340    1.0000 </r>
       <r>    1.1250    1.0000 </r>
       <r>    1.1701    1.0000 </r>
       <r>    1.2524    1.0000 </r>
       <r>    1.4198    1.0000 </r>
       <r>    1.4675    1.0000 </r>
       <r>    1.4756    1.0000 </r>
       <r>    1.5555    1.0000 </r>
       <r>    1.6635    1.0000 </r>
       <r>    1.6717    1.0000 </r>
       <r>    2.4950    1.0000 </r>
       <r>    2.6264    0.3645 </r>
       <r>    3.9850    0.0000 </r>
       <r>    4.2091    0.0000 </r>
       <r>    4.4049    0.0000 </r>
       <r>    4.6737    0.0000 </r>
       <r>    4.9548    0.0000 </r>
       <r>    4.9988    0.0000 </r>
       <r>    5.0223    0.0000 </r>
       <r>    5.0386    0.0000 </r>
       <r>    5.1184    0.0000 </r>
       <r>    5.1565    0.0000 </r>
       <r>    5.1683    0.0000 </r>
       <r>    5.1912    0.0000 </r>
       <r>    5.1926    0.0000 </r>
       <r>    5.2931    0.0000 </r>
       <r>    5.3869    0.0000 </r>
       <r>    5.4504    0.0000 </r>
       <r>    5.8602    0.0000 </r>
       <r>    6.2262    0.0000 </r>
       <r>    7.4163    0.0000 </r>
       <r>    7.6641    0.0000 </r>
       <r>    9.9346    0.0000 </r>
       <r>   10.0508    0.0000 </r>
       <r>   10.3594    0.0000 </r>
       <r>   10.5866    0.0000 </r>
       <r>   10.6401    0.0000 </r>
       <r>   10.7744    0.0000 </r>
       <r>   11.0180    0.0000 </r>
       <r>   11.0493    0.0000 </r>
       <r>   11.1990    0.0000 </r>
       <r>   11.2722    0.0000 </r>
       <r>   11.7543    0.0000 </r>
       <r>   11.8257    0.0000 </r>
       <r>   11.8773    0.0000 </r>
       <r>   12.1871    0.0000 </r>
      </set>
      <set comment="kpoint 5">
       <r>  -50.1497    1.0000 </r>
       <r>  -50.1496    1.0000 </r>
       <r>  -50.1494    1.0000 </r>
       <r>  -50.1493    1.0000 </r>
       <r>  -50.1477    1.0000 </r>
       <r>  -50.1477    1.0000 </r>
       <r>  -50.1473    1.0000 </r>
       <r>  -50.1472    1.0000 </r>
       <r>  -50.1176    1.0000 </r>
       <r>  -50.1173    1.0000 </r>
       <r>  -50.1167    1.0000 </r>
       <r>  -50.1165    1.0000 </r>
       <r>  -29.8303    1.0000 </r>
       <r>  -29.8211    1.0000 </r>
       <r>  -29.7919    1.0000 </r>
       <r>  -29.7845    1.0000 </r>
       <r>  -15.1248    1.0000 </r>
       <r>  -15.1135    1.0000 </r>
       <r>  -14.4571    1.0000 </r>
       <r>  -14.2555    1.0000 </r>
       <r>  -14.1647    1.0000 </r>
       <r>  -14.0600    1.0000 </r>
       <r>  -13.9160    1.0000 </r>
       <r>  -13.8705    1.0000 </r>
       <r>  -13.8309    1.0000 </r>
       <r>  -13.8107    1.0000 </r>
       <r>  -13.6757    1.0000 </r>
       <r>  -13.6598    1.0000 </r>
       <r>  -12.0724    1.0000 </r>
       <r>  -11.9392    1.0000 </r>
       <r>  -11.8957    1.0000 </r>
       <r>  -11.8712    1.0000 </r>
       <r>  -11.8484    1.0000 </r>
       <r>  -11.8468    1.0000 </r>
       <r>  -11.8100    1.0000 </r>
       <r>  -11.7985    1.0000 </r>
       <r>  -11.7023    1.0000 </r>
       <r>  -11.6949    1.0000 </r>
       <r>  -11.6895    1.0000 </r>
       <r>  -11.5181    1.0000 </r>
       <r>   -3.1583    1.0000 </r>
       <r>   -2.8850    1.0000 </r>
       <r>   -1.9441    1.0000 </r>
       <r>   -1.6240    1.0000 </r>
       <r>   -1.5378    1.0000 </r>
       <r>   -1.5291    1.0000 </r>
       <r>   -1.3255    1.0000 </r>
       <r>   -1.3050    1.0000 </r>
       <r>   -1.2117    1.0000 </r>
       <r>   -1.2023    1.0000 </r>
       <r>   -1.1549    1.0000 </r>
       <r>   -1.1108    1.0000 </r>
       <r>   -1.0305    1.0000 </r>
       <r>   -0.9740    1.0000 </r>
       <r>   -0.6424    1.0000 </r>
       <r>   -0.5113    1.0000 </r>
       <r>   -0.3502    1.0000 </r>
       <r>   -0.1768    1.0000 </r>
       <r>    0.0666    1.0000 </r>
       <r>    0.6665    1.0000 </r>
       <r>    0.7454    1.0000 </r>
       <r>    0.8670    1.0000 </r>
       <r>    1.1055    1.0000 </r>
       <r>    1.2874    1.0000 </r>
       <r>    1.4831    1.0000 </r>
       <r>    1.5616    1.0000 </r>
       <r>    1.5733    1.0000 </r>
       <r>    1.6422    1.0000 </r>
       <r>    1.7324    1.0000 </r>
       <r>    1.7471    1.0000 </r>
       <r>    1.7650    1.0000 </r>
       <r>    1.8197    1.0000 </r>
       <r>    2.2104    1.0000 </r>
       <r>    2.2918    1.0000 </r>
       <r>    2.5401    1.0000 </r>
       <r>    2.5827    0.7847 </r>
       <r>    4.1103    0.0000 </r>
       <r>    4.1314    0.0000 </r>
       <r>    4.3741    0.0000 </r>
       <r>    4.4159    0.0000 </r>
       <r>    4.5437    0.0000 </r>
       <r>    4.5668    0.0000 </r>
       <r>    4.8488    0.0000 </r>
       <r>    4.8674    0.0000 </r>
       <r>    5.1219    0.0000 </r>
       <r>    5.2490    0.0000 </r>
       <r>    5.2504    0.0000 </r>
       <r>    5.2980    0.0000 </r>
       <r>    5.3506    0.0000 </r>
       <r>    5.3759    0.0000 </r>
       <r>    5.4133    0.0000 </r>
       <r>    5.8434    0.0000 </r>
       <r>    5.9016    0.0000 </r>
       <r>    6.8624    0.0000 </r>
       <r>    7.4642    0.0000 </r>
       <r>    7.4767    0.0000 </r>
       <r>    9.0465    0.0000 </r>
       <r>    9.1250    0.0000 </r>
       <r>    9.6938    0.0000 </r>
       <r>    9.8775    0.0000 </r>
       <r>   10.0202    0.0000 </r>
       <r>   10.3237    0.0000 </r>
       <r>   10.4961    0.0000 </r>
       <r>   10.5255    0.0000 </r>
       <r>   10.6634    0.0000 </r>
       <r>   11.0132    0.0000 </r>
       <r>   11.1098    0.0000 </r>
       <r>   11.2505    0.0000 </r>
       <r>   11.3812    0.0000 </r>
       <r>   11.4833    0.0000 </r>
      </set>
      <set comment="kpoint 6">
       <r>  -50.1494    1.0000 </r>
       <r>  -50.1494    1.0000 </r>
       <r>  -50.1486    1.0000 </r>
       <r>  -50.1486    1.0000 </r>
       <r>  -50.1485    1.0000 </r>
       <r>  -50.1484    1.0000 </r>
       <r>  -50.1477    1.0000 </r>
       <r>  -50.1476    1.0000 </r>
       <r>  -50.1175    1.0000 </r>
       <r>  -50.1175    1.0000 </r>
       <r>  -50.1167    1.0000 </r>
       <r>  -50.1165    1.0000 </r>
       <r>  -29.8185    1.0000 </r>
       <r>  -29.8100    1.0000 </r>
       <r>  -29.8026    1.0000 </r>
       <r>  -29.7948    1.0000 </r>
       <r>  -15.0234    1.0000 </r>
       <r>  -14.9210    1.0000 </r>
       <r>  -14.7971    1.0000 </r>
       <r>  -14.6066    1.0000 </r>
       <r>  -14.0605    1.0000 </r>
       <r>  -14.0324    1.0000 </r>
       <r>  -14.0141    1.0000 </r>
       <r>  -13.9209    1.0000 </r>
       <r>  -13.8211    1.0000 </r>
       <r>  -13.7524    1.0000 </r>
       <r>  -13.7499    1.0000 </r>
       <r>  -13.7348    1.0000 </r>
       <r>  -11.9661    1.0000 </r>
       <r>  -11.9217    1.0000 </r>
       <r>  -11.8672    1.0000 </r>
       <r>  -11.8510    1.0000 </r>
       <r>  -11.8166    1.0000 </r>
       <r>  -11.7578    1.0000 </r>
       <r>  -11.7213    1.0000 </r>
       <r>  -11.7085    1.0000 </r>
       <r>  -11.6187    1.0000 </r>
       <r>  -11.5806    1.0000 </r>
       <r>  -11.5575    1.0000 </r>
       <r>  -11.5494    1.0000 </r>
       <r>   -2.7421    1.0000 </r>
       <r>   -2.4946    1.0000 </r>
       <r>   -2.2721    1.0000 </r>
       <r>   -2.0189    1.0000 </r>
       <r>   -1.4033    1.0000 </r>
       <r>   -1.3640    1.0000 </r>
       <r>   -1.3194    1.0000 </r>
       <r>   -1.2477    1.0000 </r>
       <r>   -1.2381    1.0000 </r>
       <r>   -1.1460    1.0000 </r>
       <r>   -1.1268    1.0000 </r>
       <r>   -1.0937    1.0000 </r>
       <r>   -0.9314    1.0000 </r>
       <r>   -0.7991    1.0000 </r>
       <r>   -0.5856    1.0000 </r>
       <r>   -0.4311    1.0000 </r>
       <r>   -0.2605    1.0000 </r>
       <r>   -0.2377    1.0000 </r>
       <r>    0.0134    1.0000 </r>
       <r>    0.1594    1.0000 </r>
       <r>    0.1692    1.0000 </r>
       <r>    0.3723    1.0000 </r>
       <r>    0.4112    1.0000 </r>
       <r>    0.6552    1.0000 </r>
       <r>    1.4823    1.0000 </r>
       <r>    1.5870    1.0000 </r>
       <r>    1.6168    1.0000 </r>
       <r>    1.6440    1.0000 </r>
       <r>    1.6702    1.0000 </r>
       <r>    1.7284    1.0000 </r>
       <r>    1.8706    1.0000 </r>
       <r>    1.8916    1.0000 </r>
       <r>    1.9681    1.0000 </r>
       <r>    2.0773    1.0000 </r>
       <r>    2.1348    1.0000 </r>
       <r>    2.3538    1.0440 </r>
       <r>    4.4589    0.0000 </r>
       <r>    4.6595    0.0000 </r>
       <r>    4.6608    0.0000 </r>
       <r>    4.7269    0.0000 </r>
       <r>    4.7916    0.0000 </r>
       <r>    4.8772    0.0000 </r>
       <r>    4.9676    0.0000 </r>
       <r>    5.0527    0.0000 </r>
       <r>    5.0819    0.0000 </r>
       <r>    5.1138    0.0000 </r>
       <r>    5.1556    0.0000 </r>
       <r>    5.1578    0.0000 </r>
       <r>    5.2289    0.0000 </r>
       <r>    5.2958    0.0000 </r>
       <r>    5.7182    0.0000 </r>
       <r>    5.8325    0.0000 </r>
       <r>    6.2955    0.0000 </r>
       <r>    6.4257    0.0000 </r>
       <r>    6.6812    0.0000 </r>
       <r>    6.9757    0.0000 </r>
       <r>    9.7186    0.0000 </r>
       <r>    9.8777    0.0000 </r>
       <r>   10.1615    0.0000 </r>
       <r>   10.5368    0.0000 </r>
       <r>   10.5422    0.0000 </r>
       <r>   10.5791    0.0000 </r>
       <r>   10.6524    0.0000 </r>
       <r>   10.7170    0.0000 </r>
       <r>   10.7314    0.0000 </r>
       <r>   10.8585    0.0000 </r>
       <r>   10.8989    0.0000 </r>
       <r>   11.0446    0.0000 </r>
       <r>   11.6231    0.0000 </r>
       <r>   11.7393    0.0000 </r>
      </set>
      <set comment="kpoint 7">
       <r>  -50.1494    1.0000 </r>
       <r>  -50.1494    1.0000 </r>
       <r>  -50.1486    1.0000 </r>
       <r>  -50.1486    1.0000 </r>
       <r>  -50.1485    1.0000 </r>
       <r>  -50.1484    1.0000 </r>
       <r>  -50.1477    1.0000 </r>
       <r>  -50.1476    1.0000 </r>
       <r>  -50.1175    1.0000 </r>
       <r>  -50.1175    1.0000 </r>
       <r>  -50.1167    1.0000 </r>
       <r>  -50.1165    1.0000 </r>
       <r>  -29.8185    1.0000 </r>
       <r>  -29.8100    1.0000 </r>
       <r>  -29.8026    1.0000 </r>
       <r>  -29.7948    1.0000 </r>
       <r>  -15.0234    1.0000 </r>
       <r>  -14.9209    1.0000 </r>
       <r>  -14.7970    1.0000 </r>
       <r>  -14.6065    1.0000 </r>
       <r>  -14.0605    1.0000 </r>
       <r>  -14.0324    1.0000 </r>
       <r>  -14.0143    1.0000 </r>
       <r>  -13.9212    1.0000 </r>
       <r>  -13.8212    1.0000 </r>
       <r>  -13.7520    1.0000 </r>
       <r>  -13.7505    1.0000 </r>
       <r>  -13.7350    1.0000 </r>
       <r>  -11.9659    1.0000 </r>
       <r>  -11.9216    1.0000 </r>
       <r>  -11.8670    1.0000 </r>
       <r>  -11.8512    1.0000 </r>
       <r>  -11.8158    1.0000 </r>
       <r>  -11.7582    1.0000 </r>
       <r>  -11.7208    1.0000 </r>
       <r>  -11.7089    1.0000 </r>
       <r>  -11.6187    1.0000 </r>
       <r>  -11.5806    1.0000 </r>
       <r>  -11.5575    1.0000 </r>
       <r>  -11.5495    1.0000 </r>
       <r>   -2.7419    1.0000 </r>
       <r>   -2.4945    1.0000 </r>
       <r>   -2.2720    1.0000 </r>
       <r>   -2.0187    1.0000 </r>
       <r>   -1.4033    1.0000 </r>
       <r>   -1.3640    1.0000 </r>
       <r>   -1.3194    1.0000 </r>
       <r>   -1.2477    1.0000 </r>
       <r>   -1.2381    1.0000 </r>
       <r>   -1.1460    1.0000 </r>
       <r>   -1.1267    1.0000 </r>
       <r>   -1.0937    1.0000 </r>
       <r>   -0.9313    1.0000 </r>
       <r>   -0.7990    1.0000 </r>
       <r>   -0.5855    1.0000 </r>
       <r>   -0.4311    1.0000 </r>
       <r>   -0.2606    1.0000 </r>
       <r>   -0.2378    1.0000 </r>
       <r>    0.0134    1.0000 </r>
       <r>    0.1603    1.0000 </r>
       <r>    0.1682    1.0000 </r>
       <r>    0.3727    1.0000 </r>
       <r>    0.4116    1.0000 </r>
       <r>    0.6551    1.0000 </r>
       <r>    1.4822    1.0000 </r>
       <r>    1.5867    1.0000 </r>
       <r>    1.6163    1.0000 </r>
       <r>    1.6437    1.0000 </r>
       <r>    1.6702    1.0000 </r>
       <r>    1.7281    1.0000 </r>
       <r>    1.8699    1.0000 </r>
       <r>    1.8921    1.0000 </r>
       <r>    1.9676    1.0000 </r>
       <r>    2.0771    1.0000 </r>
       <r>    2.1347    1.0000 </r>
       <r>    2.3537    1.0440 </r>
       <r>    4.4589    0.0000 </r>
       <r>    4.6595    0.0000 </r>
       <r>    4.6608    0.0000 </r>
       <r>    4.7269    0.0000 </r>
       <r>    4.7917    0.0000 </r>
       <r>    4.8772    0.0000 </r>
       <r>    4.9676    0.0000 </r>
       <r>    5.0527    0.0000 </r>
       <r>    5.0819    0.0000 </r>
       <r>    5.1138    0.0000 </r>
       <r>    5.1554    0.0000 </r>
       <r>    5.1581    0.0000 </r>
       <r>    5.2288    0.0000 </r>
       <r>    5.2956    0.0000 </r>
       <r>    5.7182    0.0000 </r>
       <r>    5.8324    0.0000 </r>
       <r>    6.2955    0.0000 </r>
       <r>    6.4257    0.0000 </r>
       <r>    6.6812    0.0000 </r>
       <r>    6.9757    0.0000 </r>
       <r>    9.7185    0.0000 </r>
       <r>    9.8779    0.0000 </r>
       <r>   10.1624    0.0000 </r>
       <r>   10.5384    0.0000 </r>
       <r>   10.5411    0.0000 </r>
       <r>   10.5829    0.0000 </r>
       <r>   10.6590    0.0000 </r>
       <r>   10.7129    0.0000 </r>
       <r>   10.7242    0.0000 </r>
       <r>   10.8595    0.0000 </r>
       <r>   10.9521    0.0000 </r>
       <r>   11.0851    0.0000 </r>
       <r>   11.6731    0.0000 </r>
       <r>   11.7651    0.0000 </r>
      </set>
      <set comment="kpoint 8">
       <r>  -50.1497    1.0000 </r>
       <r>  -50.1497    1.0000 </r>
       <r>  -50.1494    1.0000 </r>
       <r>  -50.1494    1.0000 </r>
       <r>  -50.1476    1.0000 </r>
       <r>  -50.1474    1.0000 </r>
       <r>  -50.1472    1.0000 </r>
       <r>  -50.1472    1.0000 </r>
       <r>  -50.1176    1.0000 </r>
       <r>  -50.1174    1.0000 </r>
       <r>  -50.1166    1.0000 </r>
       <r>  -50.1165    1.0000 </r>
       <r>  -29.8133    1.0000 </r>
       <r>  -29.8067    1.0000 </r>
       <r>  -29.8050    1.0000 </r>
       <r>  -29.7988    1.0000 </r>
       <r>  -15.0264    1.0000 </r>
       <r>  -14.9465    1.0000 </r>
       <r>  -14.8204    1.0000 </r>
       <r>  -14.6882    1.0000 </r>
       <r>  -14.1667    1.0000 </r>
       <r>  -14.1583    1.0000 </r>
       <r>  -14.0697    1.0000 </r>
       <r>  -14.0313    1.0000 </r>
       <r>  -13.8002    1.0000 </r>
       <r>  -13.7734    1.0000 </r>
       <r>  -13.6717    1.0000 </r>
       <r>  -13.6665    1.0000 </r>
       <r>  -11.8997    1.0000 </r>
       <r>  -11.8859    1.0000 </r>
       <r>  -11.8282    1.0000 </r>
       <r>  -11.8064    1.0000 </r>
       <r>  -11.7467    1.0000 </r>
       <r>  -11.6834    1.0000 </r>
       <r>  -11.6437    1.0000 </r>
       <r>  -11.6377    1.0000 </r>
       <r>  -11.5801    1.0000 </r>
       <r>  -11.5483    1.0000 </r>
       <r>  -11.4862    1.0000 </r>
       <r>  -11.4820    1.0000 </r>
       <r>   -2.6508    1.0000 </r>
       <r>   -2.4697    1.0000 </r>
       <r>   -2.3928    1.0000 </r>
       <r>   -2.2139    1.0000 </r>
       <r>   -1.4336    1.0000 </r>
       <r>   -1.4164    1.0000 </r>
       <r>   -1.2624    1.0000 </r>
       <r>   -1.2479    1.0000 </r>
       <r>   -1.2434    1.0000 </r>
       <r>   -1.1360    1.0000 </r>
       <r>   -1.0667    1.0000 </r>
       <r>   -1.0227    1.0000 </r>
       <r>   -0.9159    1.0000 </r>
       <r>   -0.8455    1.0000 </r>
       <r>   -0.7649    1.0000 </r>
       <r>   -0.5324    1.0000 </r>
       <r>   -0.1543    1.0000 </r>
       <r>   -0.1298    1.0000 </r>
       <r>    0.2459    1.0000 </r>
       <r>    0.3018    1.0000 </r>
       <r>    0.4941    1.0000 </r>
       <r>    0.7187    1.0000 </r>
       <r>    0.7817    1.0000 </r>
       <r>    0.7997    1.0000 </r>
       <r>    0.9228    1.0000 </r>
       <r>    1.2195    1.0000 </r>
       <r>    1.2664    1.0000 </r>
       <r>    1.3205    1.0000 </r>
       <r>    1.3636    1.0000 </r>
       <r>    1.3996    1.0000 </r>
       <r>    1.4771    1.0000 </r>
       <r>    1.5338    1.0000 </r>
       <r>    1.7997    1.0000 </r>
       <r>    1.8188    1.0000 </r>
       <r>    2.2881    1.0000 </r>
       <r>    2.3521    1.0514 </r>
       <r>    4.3824    0.0000 </r>
       <r>    4.5016    0.0000 </r>
       <r>    4.7251    0.0000 </r>
       <r>    4.8318    0.0000 </r>
       <r>    4.8885    0.0000 </r>
       <r>    4.8976    0.0000 </r>
       <r>    5.0091    0.0000 </r>
       <r>    5.0137    0.0000 </r>
       <r>    5.0569    0.0000 </r>
       <r>    5.1346    0.0000 </r>
       <r>    5.1606    0.0000 </r>
       <r>    5.1708    0.0000 </r>
       <r>    5.1852    0.0000 </r>
       <r>    5.2123    0.0000 </r>
       <r>    5.2844    0.0000 </r>
       <r>    5.3925    0.0000 </r>
       <r>    6.3045    0.0000 </r>
       <r>    6.5519    0.0000 </r>
       <r>    6.9726    0.0000 </r>
       <r>    7.1858    0.0000 </r>
       <r>   10.1444    0.0000 </r>
       <r>   10.4615    0.0000 </r>
       <r>   10.5418    0.0000 </r>
       <r>   10.6071    0.0000 </r>
       <r>   10.7891    0.0000 </r>
       <r>   10.9086    0.0000 </r>
       <r>   10.9785    0.0000 </r>
       <r>   11.1636    0.0000 </r>
       <r>   11.3512    0.0000 </r>
       <r>   11.3750    0.0000 </r>
       <r>   11.4708    0.0000 </r>
       <r>   11.5199    0.0000 </r>
       <r>   11.6813    0.0000 </r>
       <r>   11.9035    0.0000 </r>
      </set>
     </set>
    </set>
   </array>
  </eigenvalues>
  <separator name="orbital magnetization" >
   <v name="MAGDIPOLOUT">      0.00000000      0.00000000      0.00000000</v>
  </separator>
 </calculation>
 <structure name="finalpos" >
  <crystal>
   <varray name="basis" >
    <v>       5.49959355       0.00000000       0.00000000 </v>
    <v>       0.00000000       5.49920043       0.00000000 </v>
    <v>       0.00000000       0.00000000       7.79657264 </v>
   </varray>
   <i name="volume">    235.79460920 </i>
   <varray name="rec_basis" >
    <v>       0.18183162       0.00000000       0.00000000 </v>
    <v>       0.00000000       0.18184462       0.00000000 </v>
    <v>       0.00000000       0.00000000       0.12826149 </v>
   </varray>
  </crystal>
  <varray name="positions" >
   <v>       0.00003629       0.50010625       0.25000000 </v>
   <v>       0.50003629       0.99989375       0.75000000 </v>
   <v>       0.49996371       0.00010625       0.25000000 </v>
   <v>       0.99996371       0.49989375       0.75000000 </v>
   <v>       0.50000000       0.50000000       0.50000000 </v>
   <v>       0.00000000       0.00000000       0.50000000 </v>
   <v>       0.50000000       0.50000000       0.00000000 </v>
   <v>       0.00000000       0.00000000       0.00000000 </v>
   <v>       0.74677095       0.24677578       0.50108997 </v>
   <v>       0.25322905       0.75322422       0.00108997 </v>
   <v>       0.75322905       0.74677578       0.50108997 </v>
   <v>       0.99781447       0.99999676       0.25000000 </v>
   <v>       0.24677095       0.25322422       0.00108997 </v>
   <v>       0.75322905       0.74677578       0.99891003 </v>
   <v>       0.49781447       0.50000324       0.75000000 </v>
   <v>       0.25322905       0.75322422       0.49891003 </v>
   <v>       0.00218553       0.00000324       0.75000000 </v>
   <v>       0.50218553       0.49999676       0.25000000 </v>
   <v>       0.24677095       0.25322422       0.49891003 </v>
   <v>       0.74677095       0.24677578       0.99891003 </v>
  </varray>
 </structure>
</modeling>
