unknown system                          
           1
     5.499594    0.000000    0.000000
     0.000000    5.499200    0.000000
     0.000000    0.000000    7.796573
   Sr   Fe   O 
   4   4  12
Direct configuration=     1
   0.00003629  0.50010625  0.25000000
   0.50003629  0.99989375  0.75000000
   0.49996371  0.00010625  0.25000000
   0.99996371  0.49989375  0.75000000
   0.50000000  0.50000000  0.50000000
   0.00000000  0.00000000  0.50000000
   0.50000000  0.50000000  0.00000000
   0.00000000  0.00000000  0.00000000
   0.74677095  0.24677578  0.50108997
   0.25322905  0.75322422  0.00108997
   0.75322905  0.74677578  0.50108997
   0.99781447  0.99999676  0.25000000
   0.24677095  0.25322422  0.00108997
   0.75322905  0.74677578  0.99891003
   0.49781447  0.50000324  0.75000000
   0.25322905  0.75322422  0.49891003
   0.00218553  0.00000324  0.75000000
   0.50218553  0.49999676  0.25000000
   0.24677095  0.25322422  0.49891003
   0.74677095  0.24677578  0.99891003
